SPECGRID
10 10 10 1 F
/

COORD
0 0 0 0 0 2.72727
8.18182 0 0 9.83471 0 2.72727
16.3636 0 0 19.6694 0 2.72727
24.5455 0 0 29.5041 0 2.72727
32.7273 0 0 39.3388 0 2.72727
40.9091 0 0 49.1736 0 2.72727
50 0 0 58.2645 0 2.72727
60 0 0 66.6116 0 2.72727
70 0 0 74.9587 0 2.72727
80 0 0 83.3058 0 2.72727
90 0 0 91.6529 0 2.72727
0 3.63636 0 0 3.63636 2.72727
8.18182 3.63636 0 9.83471 3.63636 2.72727
16.3636 3.63636 0 19.6694 3.63636 2.72727
24.5455 3.63636 0 29.5041 3.63636 2.72727
32.7273 3.63636 0 39.3388 3.63636 2.72727
40.9091 3.63636 0 49.1736 3.63636 2.72727
50 3.63636 0 58.2645 3.63636 2.72727
60 3.63636 0 66.6116 3.63636 2.72727
70 3.63636 0 74.9587 3.63636 2.72727
80 3.63636 0 83.3058 3.63636 2.72727
90 3.63636 0 91.6529 3.63636 2.72727
0 7.27273 0 0 7.27273 2.72727
8.18182 7.27273 0 9.83471 7.27273 2.72727
16.3636 7.27273 0 19.6694 7.27273 2.72727
24.5455 7.27273 0 29.5041 7.27273 2.72727
32.7273 7.27273 0 39.3388 7.27273 2.72727
40.9091 7.27273 0 49.1736 7.27273 2.72727
50 7.27273 0 58.2645 7.27273 2.72727
60 7.27273 0 66.6116 7.27273 2.72727
70 7.27273 0 74.9587 7.27273 2.72727
80 7.27273 0 83.3058 7.27273 2.72727
90 7.27273 0 91.6529 7.27273 2.72727
0 10.9091 0 0 10.9091 2.72727
8.18182 10.9091 0 9.83471 10.9091 2.72727
16.3636 10.9091 0 19.6694 10.9091 2.72727
24.5455 10.9091 0 29.5041 10.9091 2.72727
32.7273 10.9091 0 39.3388 10.9091 2.72727
40.9091 10.9091 0 49.1736 10.9091 2.72727
50 10.9091 0 58.2645 10.9091 2.72727
60 10.9091 0 66.6116 10.9091 2.72727
70 10.9091 0 74.9587 10.9091 2.72727
80 10.9091 0 83.3058 10.9091 2.72727
90 10.9091 0 91.6529 10.9091 2.72727
0 14.5455 0 0 14.5455 2.72727
8.18182 14.5455 0 9.83471 14.5455 2.72727
16.3636 14.5455 0 19.6694 14.5455 2.72727
24.5455 14.5455 0 29.5041 14.5455 2.72727
32.7273 14.5455 0 39.3388 14.5455 2.72727
40.9091 14.5455 0 49.1736 14.5455 2.72727
50 14.5455 0 58.2645 14.5455 2.72727
60 14.5455 0 66.6116 14.5455 2.72727
70 14.5455 0 74.9587 14.5455 2.72727
80 14.5455 0 83.3058 14.5455 2.72727
90 14.5455 0 91.6529 14.5455 2.72727
0 18.1818 0 0 18.1818 2.72727
8.18182 18.1818 0 9.83471 18.1818 2.72727
16.3636 18.1818 0 19.6694 18.1818 2.72727
24.5455 18.1818 0 29.5041 18.1818 2.72727
32.7273 18.1818 0 39.3388 18.1818 2.72727
40.9091 18.1818 0 49.1736 18.1818 2.72727
50 18.1818 0 58.2645 18.1818 2.72727
60 18.1818 0 66.6116 18.1818 2.72727
70 18.1818 0 74.9587 18.1818 2.72727
80 18.1818 0 83.3058 18.1818 2.72727
90 18.1818 0 91.6529 18.1818 2.72727
0 21.8182 0 0 21.8182 2.72727
8.18182 21.8182 0 9.83471 21.8182 2.72727
16.3636 21.8182 0 19.6694 21.8182 2.72727
24.5455 21.8182 0 29.5041 21.8182 2.72727
32.7273 21.8182 0 39.3388 21.8182 2.72727
40.9091 21.8182 0 49.1736 21.8182 2.72727
50 21.8182 0 58.2645 21.8182 2.72727
60 21.8182 0 66.6116 21.8182 2.72727
70 21.8182 0 74.9587 21.8182 2.72727
80 21.8182 0 83.3058 21.8182 2.72727
90 21.8182 0 91.6529 21.8182 2.72727
0 25.4545 0 0 25.4545 2.72727
8.18182 25.4545 0 9.83471 25.4545 2.72727
16.3636 25.4545 0 19.6694 25.4545 2.72727
24.5455 25.4545 0 29.5041 25.4545 2.72727
32.7273 25.4545 0 39.3388 25.4545 2.72727
40.9091 25.4545 0 49.1736 25.4545 2.72727
50 25.4545 0 58.2645 25.4545 2.72727
60 25.4545 0 66.6116 25.4545 2.72727
70 25.4545 0 74.9587 25.4545 2.72727
80 25.4545 0 83.3058 25.4545 2.72727
90 25.4545 0 91.6529 25.4545 2.72727
0 29.0909 0 0 29.0909 2.72727
8.18182 29.0909 0 9.83471 29.0909 2.72727
16.3636 29.0909 0 19.6694 29.0909 2.72727
24.5455 29.0909 0 29.5041 29.0909 2.72727
32.7273 29.0909 0 39.3388 29.0909 2.72727
40.9091 29.0909 0 49.1736 29.0909 2.72727
50 29.0909 0 58.2645 29.0909 2.72727
60 29.0909 0 66.6116 29.0909 2.72727
70 29.0909 0 74.9587 29.0909 2.72727
80 29.0909 0 83.3058 29.0909 2.72727
90 29.0909 0 91.6529 29.0909 2.72727
0 32.7273 0 0 32.7273 2.72727
8.18182 32.7273 0 9.83471 32.7273 2.72727
16.3636 32.7273 0 19.6694 32.7273 2.72727
24.5455 32.7273 0 29.5041 32.7273 2.72727
32.7273 32.7273 0 39.3388 32.7273 2.72727
40.9091 32.7273 0 49.1736 32.7273 2.72727
50 32.7273 0 58.2645 32.7273 2.72727
60 32.7273 0 66.6116 32.7273 2.72727
70 32.7273 0 74.9587 32.7273 2.72727
80 32.7273 0 83.3058 32.7273 2.72727
90 32.7273 0 91.6529 32.7273 2.72727
0 36.3636 0 0 36.3636 2.72727
8.18182 36.3636 0 9.83471 36.3636 2.72727
16.3636 36.3636 0 19.6694 36.3636 2.72727
24.5455 36.3636 0 29.5041 36.3636 2.72727
32.7273 36.3636 0 39.3388 36.3636 2.72727
40.9091 36.3636 0 49.1736 36.3636 2.72727
50 36.3636 0 58.2645 36.3636 2.72727
60 36.3636 0 66.6116 36.3636 2.72727
70 36.3636 0 74.9587 36.3636 2.72727
80 36.3636 0 83.3058 36.3636 2.72727
90 36.3636 0 91.6529 36.3636 2.72727
/

ZCORN
0 0 0 0 0 0 0 0
0 0 0.5 0.5 0.5 0.5 0.5 0.5
0.5 0.5 0.5 0.5 0 0 0 0
0 0 0 0 0 0 0.5 0.5
0.5 0.5 0.5 0.5 0.5 0.5 0.5 0.5
0 0 0 0 0 0 0 0
0 0 0.5 0.5 0.5 0.5 0.5 0.5
0.5 0.5 0.5 0.5 0 0 0 0
0 0 0 0 0 0 0.5 0.5
0.5 0.5 0.5 0.5 0.5 0.5 0.5 0.5
0 0 0 0 0 0 0 0
0 0 0.5 0.5 0.5 0.5 0.5 0.5
0.5 0.5 0.5 0.5 0 0 0 0
0 0 0 0 0 0 0.5 0.5
0.5 0.5 0.5 0.5 0.5 0.5 0.5 0.5
0 0 0 0 0 0 0 0
0 0 0.5 0.5 0.5 0.5 0.5 0.5
0.5 0.5 0.5 0.5 0 0 0 0
0 0 0 0 0 0 0.5 0.5
0.5 0.5 0.5 0.5 0.5 0.5 0.5 0.5
0 0 0 0 0 0 0 0
0 0 0.5 0.5 0.5 0.5 0.5 0.5
0.5 0.5 0.5 0.5 0 0 0 0
0 0 0 0 0 0 0.5 0.5
0.5 0.5 0.5 0.5 0.5 0.5 0.5 0.5
0 0 0 0 0 0 0 0
0 0 0.5 0.5 0.5 0.5 0.5 0.5
0.5 0.5 0.5 0.5 0 0 0 0
0 0 0 0 0 0 0.5 0.5
0.5 0.5 0.5 0.5 0.5 0.5 0.5 0.5
0 0 0 0 0 0 0 0
0 0 0.5 0.5 0.5 0.5 0.5 0.5
0.5 0.5 0.5 0.5 0 0 0 0
0 0 0 0 0 0 0.5 0.5
0.5 0.5 0.5 0.5 0.5 0.5 0.5 0.5
0 0 0 0 0 0 0 0
0 0 0.5 0.5 0.5 0.5 0.5 0.5
0.5 0.5 0.5 0.5 0 0 0 0
0 0 0 0 0 0 0.5 0.5
0.5 0.5 0.5 0.5 0.5 0.5 0.5 0.5
0 0 0 0 0 0 0 0
0 0 0.5 0.5 0.5 0.5 0.5 0.5
0.5 0.5 0.5 0.5 0 0 0 0
0 0 0 0 0 0 0.5 0.5
0.5 0.5 0.5 0.5 0.5 0.5 0.5 0.5
0 0 0 0 0 0 0 0
0 0 0.5 0.5 0.5 0.5 0.5 0.5
0.5 0.5 0.5 0.5 0 0 0 0
0 0 0 0 0 0 0.5 0.5
0.5 0.5 0.5 0.5 0.5 0.5 0.5 0.5
0.272727 0.272727 0.272727 0.272727 0.272727 0.272727 0.272727 0.272727
0.272727 0.272727 0.772727 0.772727 0.772727 0.772727 0.772727 0.772727
0.772727 0.772727 0.772727 0.772727 0.272727 0.272727 0.272727 0.272727
0.272727 0.272727 0.272727 0.272727 0.272727 0.272727 0.772727 0.772727
0.772727 0.772727 0.772727 0.772727 0.772727 0.772727 0.772727 0.772727
0.272727 0.272727 0.272727 0.272727 0.272727 0.272727 0.272727 0.272727
0.272727 0.272727 0.772727 0.772727 0.772727 0.772727 0.772727 0.772727
0.772727 0.772727 0.772727 0.772727 0.272727 0.272727 0.272727 0.272727
0.272727 0.272727 0.272727 0.272727 0.272727 0.272727 0.772727 0.772727
0.772727 0.772727 0.772727 0.772727 0.772727 0.772727 0.772727 0.772727
0.272727 0.272727 0.272727 0.272727 0.272727 0.272727 0.272727 0.272727
0.272727 0.272727 0.772727 0.772727 0.772727 0.772727 0.772727 0.772727
0.772727 0.772727 0.772727 0.772727 0.272727 0.272727 0.272727 0.272727
0.272727 0.272727 0.272727 0.272727 0.272727 0.272727 0.772727 0.772727
0.772727 0.772727 0.772727 0.772727 0.772727 0.772727 0.772727 0.772727
0.272727 0.272727 0.272727 0.272727 0.272727 0.272727 0.272727 0.272727
0.272727 0.272727 0.772727 0.772727 0.772727 0.772727 0.772727 0.772727
0.772727 0.772727 0.772727 0.772727 0.272727 0.272727 0.272727 0.272727
0.272727 0.272727 0.272727 0.272727 0.272727 0.272727 0.772727 0.772727
0.772727 0.772727 0.772727 0.772727 0.772727 0.772727 0.772727 0.772727
0.272727 0.272727 0.272727 0.272727 0.272727 0.272727 0.272727 0.272727
0.272727 0.272727 0.772727 0.772727 0.772727 0.772727 0.772727 0.772727
0.772727 0.772727 0.772727 0.772727 0.272727 0.272727 0.272727 0.272727
0.272727 0.272727 0.272727 0.272727 0.272727 0.272727 0.772727 0.772727
0.772727 0.772727 0.772727 0.772727 0.772727 0.772727 0.772727 0.772727
0.272727 0.272727 0.272727 0.272727 0.272727 0.272727 0.272727 0.272727
0.272727 0.272727 0.772727 0.772727 0.772727 0.772727 0.772727 0.772727
0.772727 0.772727 0.772727 0.772727 0.272727 0.272727 0.272727 0.272727
0.272727 0.272727 0.272727 0.272727 0.272727 0.272727 0.772727 0.772727
0.772727 0.772727 0.772727 0.772727 0.772727 0.772727 0.772727 0.772727
0.272727 0.272727 0.272727 0.272727 0.272727 0.272727 0.272727 0.272727
0.272727 0.272727 0.772727 0.772727 0.772727 0.772727 0.772727 0.772727
0.772727 0.772727 0.772727 0.772727 0.272727 0.272727 0.272727 0.272727
0.272727 0.272727 0.272727 0.272727 0.272727 0.272727 0.772727 0.772727
0.772727 0.772727 0.772727 0.772727 0.772727 0.772727 0.772727 0.772727
0.272727 0.272727 0.272727 0.272727 0.272727 0.272727 0.272727 0.272727
0.272727 0.272727 0.772727 0.772727 0.772727 0.772727 0.772727 0.772727
0.772727 0.772727 0.772727 0.772727 0.272727 0.272727 0.272727 0.272727
0.272727 0.272727 0.272727 0.272727 0.272727 0.272727 0.772727 0.772727
0.772727 0.772727 0.772727 0.772727 0.772727 0.772727 0.772727 0.772727
0.272727 0.272727 0.272727 0.272727 0.272727 0.272727 0.272727 0.272727
0.272727 0.272727 0.772727 0.772727 0.772727 0.772727 0.772727 0.772727
0.772727 0.772727 0.772727 0.772727 0.272727 0.272727 0.272727 0.272727
0.272727 0.272727 0.272727 0.272727 0.272727 0.272727 0.772727 0.772727
0.772727 0.772727 0.772727 0.772727 0.772727 0.772727 0.772727 0.772727
0.272727 0.272727 0.272727 0.272727 0.272727 0.272727 0.272727 0.272727
0.272727 0.272727 0.772727 0.772727 0.772727 0.772727 0.772727 0.772727
0.772727 0.772727 0.772727 0.772727 0.272727 0.272727 0.272727 0.272727
0.272727 0.272727 0.272727 0.272727 0.272727 0.272727 0.772727 0.772727
0.772727 0.772727 0.772727 0.772727 0.772727 0.772727 0.772727 0.772727
0.272727 0.272727 0.272727 0.272727 0.272727 0.272727 0.272727 0.272727
0.272727 0.272727 0.772727 0.772727 0.772727 0.772727 0.772727 0.772727
0.772727 0.772727 0.772727 0.772727 0.272727 0.272727 0.272727 0.272727
0.272727 0.272727 0.272727 0.272727 0.272727 0.272727 0.772727 0.772727
0.772727 0.772727 0.772727 0.772727 0.772727 0.772727 0.772727 0.772727
0.272727 0.272727 0.272727 0.272727 0.272727 0.272727 0.272727 0.272727
0.272727 0.272727 0.772727 0.772727 0.772727 0.772727 0.772727 0.772727
0.772727 0.772727 0.772727 0.772727 0.272727 0.272727 0.272727 0.272727
0.272727 0.272727 0.272727 0.272727 0.272727 0.272727 0.772727 0.772727
0.772727 0.772727 0.772727 0.772727 0.772727 0.772727 0.772727 0.772727
0.272727 0.272727 0.272727 0.272727 0.272727 0.272727 0.272727 0.272727
0.272727 0.272727 0.772727 0.772727 0.772727 0.772727 0.772727 0.772727
0.772727 0.772727 0.772727 0.772727 0.272727 0.272727 0.272727 0.272727
0.272727 0.272727 0.272727 0.272727 0.272727 0.272727 0.772727 0.772727
0.772727 0.772727 0.772727 0.772727 0.772727 0.772727 0.772727 0.772727
0.272727 0.272727 0.272727 0.272727 0.272727 0.272727 0.272727 0.272727
0.272727 0.272727 0.772727 0.772727 0.772727 0.772727 0.772727 0.772727
0.772727 0.772727 0.772727 0.772727 0.272727 0.272727 0.272727 0.272727
0.272727 0.272727 0.272727 0.272727 0.272727 0.272727 0.772727 0.772727
0.772727 0.772727 0.772727 0.772727 0.772727 0.772727 0.772727 0.772727
0.272727 0.272727 0.272727 0.272727 0.272727 0.272727 0.272727 0.272727
0.272727 0.272727 0.772727 0.772727 0.772727 0.772727 0.772727 0.772727
0.772727 0.772727 0.772727 0.772727 0.272727 0.272727 0.272727 0.272727
0.272727 0.272727 0.272727 0.272727 0.272727 0.272727 0.772727 0.772727
0.772727 0.772727 0.772727 0.772727 0.772727 0.772727 0.772727 0.772727
0.272727 0.272727 0.272727 0.272727 0.272727 0.272727 0.272727 0.272727
0.272727 0.272727 0.772727 0.772727 0.772727 0.772727 0.772727 0.772727
0.772727 0.772727 0.772727 0.772727 0.272727 0.272727 0.272727 0.272727
0.272727 0.272727 0.272727 0.272727 0.272727 0.272727 0.772727 0.772727
0.772727 0.772727 0.772727 0.772727 0.772727 0.772727 0.772727 0.772727
0.272727 0.272727 0.272727 0.272727 0.272727 0.272727 0.272727 0.272727
0.272727 0.272727 0.772727 0.772727 0.772727 0.772727 0.772727 0.772727
0.772727 0.772727 0.772727 0.772727 0.272727 0.272727 0.272727 0.272727
0.272727 0.272727 0.272727 0.272727 0.272727 0.272727 0.772727 0.772727
0.772727 0.772727 0.772727 0.772727 0.772727 0.772727 0.772727 0.772727
0.272727 0.272727 0.272727 0.272727 0.272727 0.272727 0.272727 0.272727
0.272727 0.272727 0.772727 0.772727 0.772727 0.772727 0.772727 0.772727
0.772727 0.772727 0.772727 0.772727 0.272727 0.272727 0.272727 0.272727
0.272727 0.272727 0.272727 0.272727 0.272727 0.272727 0.772727 0.772727
0.772727 0.772727 0.772727 0.772727 0.772727 0.772727 0.772727 0.772727
0.272727 0.272727 0.272727 0.272727 0.272727 0.272727 0.272727 0.272727
0.272727 0.272727 0.772727 0.772727 0.772727 0.772727 0.772727 0.772727
0.772727 0.772727 0.772727 0.772727 0.272727 0.272727 0.272727 0.272727
0.272727 0.272727 0.272727 0.272727 0.272727 0.272727 0.772727 0.772727
0.772727 0.772727 0.772727 0.772727 0.772727 0.772727 0.772727 0.772727
0.272727 0.272727 0.272727 0.272727 0.272727 0.272727 0.272727 0.272727
0.272727 0.272727 0.772727 0.772727 0.772727 0.772727 0.772727 0.772727
0.772727 0.772727 0.772727 0.772727 0.272727 0.272727 0.272727 0.272727
0.272727 0.272727 0.272727 0.272727 0.272727 0.272727 0.772727 0.772727
0.772727 0.772727 0.772727 0.772727 0.772727 0.772727 0.772727 0.772727
0.545455 0.545455 0.545455 0.545455 0.545455 0.545455 0.545455 0.545455
0.545455 0.545455 1.04545 1.04545 1.04545 1.04545 1.04545 1.04545
1.04545 1.04545 1.04545 1.04545 0.545455 0.545455 0.545455 0.545455
0.545455 0.545455 0.545455 0.545455 0.545455 0.545455 1.04545 1.04545
1.04545 1.04545 1.04545 1.04545 1.04545 1.04545 1.04545 1.04545
0.545455 0.545455 0.545455 0.545455 0.545455 0.545455 0.545455 0.545455
0.545455 0.545455 1.04545 1.04545 1.04545 1.04545 1.04545 1.04545
1.04545 1.04545 1.04545 1.04545 0.545455 0.545455 0.545455 0.545455
0.545455 0.545455 0.545455 0.545455 0.545455 0.545455 1.04545 1.04545
1.04545 1.04545 1.04545 1.04545 1.04545 1.04545 1.04545 1.04545
0.545455 0.545455 0.545455 0.545455 0.545455 0.545455 0.545455 0.545455
0.545455 0.545455 1.04545 1.04545 1.04545 1.04545 1.04545 1.04545
1.04545 1.04545 1.04545 1.04545 0.545455 0.545455 0.545455 0.545455
0.545455 0.545455 0.545455 0.545455 0.545455 0.545455 1.04545 1.04545
1.04545 1.04545 1.04545 1.04545 1.04545 1.04545 1.04545 1.04545
0.545455 0.545455 0.545455 0.545455 0.545455 0.545455 0.545455 0.545455
0.545455 0.545455 1.04545 1.04545 1.04545 1.04545 1.04545 1.04545
1.04545 1.04545 1.04545 1.04545 0.545455 0.545455 0.545455 0.545455
0.545455 0.545455 0.545455 0.545455 0.545455 0.545455 1.04545 1.04545
1.04545 1.04545 1.04545 1.04545 1.04545 1.04545 1.04545 1.04545
0.545455 0.545455 0.545455 0.545455 0.545455 0.545455 0.545455 0.545455
0.545455 0.545455 1.04545 1.04545 1.04545 1.04545 1.04545 1.04545
1.04545 1.04545 1.04545 1.04545 0.545455 0.545455 0.545455 0.545455
0.545455 0.545455 0.545455 0.545455 0.545455 0.545455 1.04545 1.04545
1.04545 1.04545 1.04545 1.04545 1.04545 1.04545 1.04545 1.04545
0.545455 0.545455 0.545455 0.545455 0.545455 0.545455 0.545455 0.545455
0.545455 0.545455 1.04545 1.04545 1.04545 1.04545 1.04545 1.04545
1.04545 1.04545 1.04545 1.04545 0.545455 0.545455 0.545455 0.545455
0.545455 0.545455 0.545455 0.545455 0.545455 0.545455 1.04545 1.04545
1.04545 1.04545 1.04545 1.04545 1.04545 1.04545 1.04545 1.04545
0.545455 0.545455 0.545455 0.545455 0.545455 0.545455 0.545455 0.545455
0.545455 0.545455 1.04545 1.04545 1.04545 1.04545 1.04545 1.04545
1.04545 1.04545 1.04545 1.04545 0.545455 0.545455 0.545455 0.545455
0.545455 0.545455 0.545455 0.545455 0.545455 0.545455 1.04545 1.04545
1.04545 1.04545 1.04545 1.04545 1.04545 1.04545 1.04545 1.04545
0.545455 0.545455 0.545455 0.545455 0.545455 0.545455 0.545455 0.545455
0.545455 0.545455 1.04545 1.04545 1.04545 1.04545 1.04545 1.04545
1.04545 1.04545 1.04545 1.04545 0.545455 0.545455 0.545455 0.545455
0.545455 0.545455 0.545455 0.545455 0.545455 0.545455 1.04545 1.04545
1.04545 1.04545 1.04545 1.04545 1.04545 1.04545 1.04545 1.04545
0.545455 0.545455 0.545455 0.545455 0.545455 0.545455 0.545455 0.545455
0.545455 0.545455 1.04545 1.04545 1.04545 1.04545 1.04545 1.04545
1.04545 1.04545 1.04545 1.04545 0.545455 0.545455 0.545455 0.545455
0.545455 0.545455 0.545455 0.545455 0.545455 0.545455 1.04545 1.04545
1.04545 1.04545 1.04545 1.04545 1.04545 1.04545 1.04545 1.04545
0.545455 0.545455 0.545455 0.545455 0.545455 0.545455 0.545455 0.545455
0.545455 0.545455 1.04545 1.04545 1.04545 1.04545 1.04545 1.04545
1.04545 1.04545 1.04545 1.04545 0.545455 0.545455 0.545455 0.545455
0.545455 0.545455 0.545455 0.545455 0.545455 0.545455 1.04545 1.04545
1.04545 1.04545 1.04545 1.04545 1.04545 1.04545 1.04545 1.04545
0.545455 0.545455 0.545455 0.545455 0.545455 0.545455 0.545455 0.545455
0.545455 0.545455 1.04545 1.04545 1.04545 1.04545 1.04545 1.04545
1.04545 1.04545 1.04545 1.04545 0.545455 0.545455 0.545455 0.545455
0.545455 0.545455 0.545455 0.545455 0.545455 0.545455 1.04545 1.04545
1.04545 1.04545 1.04545 1.04545 1.04545 1.04545 1.04545 1.04545
0.545455 0.545455 0.545455 0.545455 0.545455 0.545455 0.545455 0.545455
0.545455 0.545455 1.04545 1.04545 1.04545 1.04545 1.04545 1.04545
1.04545 1.04545 1.04545 1.04545 0.545455 0.545455 0.545455 0.545455
0.545455 0.545455 0.545455 0.545455 0.545455 0.545455 1.04545 1.04545
1.04545 1.04545 1.04545 1.04545 1.04545 1.04545 1.04545 1.04545
0.545455 0.545455 0.545455 0.545455 0.545455 0.545455 0.545455 0.545455
0.545455 0.545455 1.04545 1.04545 1.04545 1.04545 1.04545 1.04545
1.04545 1.04545 1.04545 1.04545 0.545455 0.545455 0.545455 0.545455
0.545455 0.545455 0.545455 0.545455 0.545455 0.545455 1.04545 1.04545
1.04545 1.04545 1.04545 1.04545 1.04545 1.04545 1.04545 1.04545
0.545455 0.545455 0.545455 0.545455 0.545455 0.545455 0.545455 0.545455
0.545455 0.545455 1.04545 1.04545 1.04545 1.04545 1.04545 1.04545
1.04545 1.04545 1.04545 1.04545 0.545455 0.545455 0.545455 0.545455
0.545455 0.545455 0.545455 0.545455 0.545455 0.545455 1.04545 1.04545
1.04545 1.04545 1.04545 1.04545 1.04545 1.04545 1.04545 1.04545
0.545455 0.545455 0.545455 0.545455 0.545455 0.545455 0.545455 0.545455
0.545455 0.545455 1.04545 1.04545 1.04545 1.04545 1.04545 1.04545
1.04545 1.04545 1.04545 1.04545 0.545455 0.545455 0.545455 0.545455
0.545455 0.545455 0.545455 0.545455 0.545455 0.545455 1.04545 1.04545
1.04545 1.04545 1.04545 1.04545 1.04545 1.04545 1.04545 1.04545
0.545455 0.545455 0.545455 0.545455 0.545455 0.545455 0.545455 0.545455
0.545455 0.545455 1.04545 1.04545 1.04545 1.04545 1.04545 1.04545
1.04545 1.04545 1.04545 1.04545 0.545455 0.545455 0.545455 0.545455
0.545455 0.545455 0.545455 0.545455 0.545455 0.545455 1.04545 1.04545
1.04545 1.04545 1.04545 1.04545 1.04545 1.04545 1.04545 1.04545
0.545455 0.545455 0.545455 0.545455 0.545455 0.545455 0.545455 0.545455
0.545455 0.545455 1.04545 1.04545 1.04545 1.04545 1.04545 1.04545
1.04545 1.04545 1.04545 1.04545 0.545455 0.545455 0.545455 0.545455
0.545455 0.545455 0.545455 0.545455 0.545455 0.545455 1.04545 1.04545
1.04545 1.04545 1.04545 1.04545 1.04545 1.04545 1.04545 1.04545
0.545455 0.545455 0.545455 0.545455 0.545455 0.545455 0.545455 0.545455
0.545455 0.545455 1.04545 1.04545 1.04545 1.04545 1.04545 1.04545
1.04545 1.04545 1.04545 1.04545 0.545455 0.545455 0.545455 0.545455
0.545455 0.545455 0.545455 0.545455 0.545455 0.545455 1.04545 1.04545
1.04545 1.04545 1.04545 1.04545 1.04545 1.04545 1.04545 1.04545
0.545455 0.545455 0.545455 0.545455 0.545455 0.545455 0.545455 0.545455
0.545455 0.545455 1.04545 1.04545 1.04545 1.04545 1.04545 1.04545
1.04545 1.04545 1.04545 1.04545 0.545455 0.545455 0.545455 0.545455
0.545455 0.545455 0.545455 0.545455 0.545455 0.545455 1.04545 1.04545
1.04545 1.04545 1.04545 1.04545 1.04545 1.04545 1.04545 1.04545
0.545455 0.545455 0.545455 0.545455 0.545455 0.545455 0.545455 0.545455
0.545455 0.545455 1.04545 1.04545 1.04545 1.04545 1.04545 1.04545
1.04545 1.04545 1.04545 1.04545 0.545455 0.545455 0.545455 0.545455
0.545455 0.545455 0.545455 0.545455 0.545455 0.545455 1.04545 1.04545
1.04545 1.04545 1.04545 1.04545 1.04545 1.04545 1.04545 1.04545
0.818182 0.818182 0.818182 0.818182 0.818182 0.818182 0.818182 0.818182
0.818182 0.818182 1.31818 1.31818 1.31818 1.31818 1.31818 1.31818
1.31818 1.31818 1.31818 1.31818 0.818182 0.818182 0.818182 0.818182
0.818182 0.818182 0.818182 0.818182 0.818182 0.818182 1.31818 1.31818
1.31818 1.31818 1.31818 1.31818 1.31818 1.31818 1.31818 1.31818
0.818182 0.818182 0.818182 0.818182 0.818182 0.818182 0.818182 0.818182
0.818182 0.818182 1.31818 1.31818 1.31818 1.31818 1.31818 1.31818
1.31818 1.31818 1.31818 1.31818 0.818182 0.818182 0.818182 0.818182
0.818182 0.818182 0.818182 0.818182 0.818182 0.818182 1.31818 1.31818
1.31818 1.31818 1.31818 1.31818 1.31818 1.31818 1.31818 1.31818
0.818182 0.818182 0.818182 0.818182 0.818182 0.818182 0.818182 0.818182
0.818182 0.818182 1.31818 1.31818 1.31818 1.31818 1.31818 1.31818
1.31818 1.31818 1.31818 1.31818 0.818182 0.818182 0.818182 0.818182
0.818182 0.818182 0.818182 0.818182 0.818182 0.818182 1.31818 1.31818
1.31818 1.31818 1.31818 1.31818 1.31818 1.31818 1.31818 1.31818
0.818182 0.818182 0.818182 0.818182 0.818182 0.818182 0.818182 0.818182
0.818182 0.818182 1.31818 1.31818 1.31818 1.31818 1.31818 1.31818
1.31818 1.31818 1.31818 1.31818 0.818182 0.818182 0.818182 0.818182
0.818182 0.818182 0.818182 0.818182 0.818182 0.818182 1.31818 1.31818
1.31818 1.31818 1.31818 1.31818 1.31818 1.31818 1.31818 1.31818
0.818182 0.818182 0.818182 0.818182 0.818182 0.818182 0.818182 0.818182
0.818182 0.818182 1.31818 1.31818 1.31818 1.31818 1.31818 1.31818
1.31818 1.31818 1.31818 1.31818 0.818182 0.818182 0.818182 0.818182
0.818182 0.818182 0.818182 0.818182 0.818182 0.818182 1.31818 1.31818
1.31818 1.31818 1.31818 1.31818 1.31818 1.31818 1.31818 1.31818
0.818182 0.818182 0.818182 0.818182 0.818182 0.818182 0.818182 0.818182
0.818182 0.818182 1.31818 1.31818 1.31818 1.31818 1.31818 1.31818
1.31818 1.31818 1.31818 1.31818 0.818182 0.818182 0.818182 0.818182
0.818182 0.818182 0.818182 0.818182 0.818182 0.818182 1.31818 1.31818
1.31818 1.31818 1.31818 1.31818 1.31818 1.31818 1.31818 1.31818
0.818182 0.818182 0.818182 0.818182 0.818182 0.818182 0.818182 0.818182
0.818182 0.818182 1.31818 1.31818 1.31818 1.31818 1.31818 1.31818
1.31818 1.31818 1.31818 1.31818 0.818182 0.818182 0.818182 0.818182
0.818182 0.818182 0.818182 0.818182 0.818182 0.818182 1.31818 1.31818
1.31818 1.31818 1.31818 1.31818 1.31818 1.31818 1.31818 1.31818
0.818182 0.818182 0.818182 0.818182 0.818182 0.818182 0.818182 0.818182
0.818182 0.818182 1.31818 1.31818 1.31818 1.31818 1.31818 1.31818
1.31818 1.31818 1.31818 1.31818 0.818182 0.818182 0.818182 0.818182
0.818182 0.818182 0.818182 0.818182 0.818182 0.818182 1.31818 1.31818
1.31818 1.31818 1.31818 1.31818 1.31818 1.31818 1.31818 1.31818
0.818182 0.818182 0.818182 0.818182 0.818182 0.818182 0.818182 0.818182
0.818182 0.818182 1.31818 1.31818 1.31818 1.31818 1.31818 1.31818
1.31818 1.31818 1.31818 1.31818 0.818182 0.818182 0.818182 0.818182
0.818182 0.818182 0.818182 0.818182 0.818182 0.818182 1.31818 1.31818
1.31818 1.31818 1.31818 1.31818 1.31818 1.31818 1.31818 1.31818
0.818182 0.818182 0.818182 0.818182 0.818182 0.818182 0.818182 0.818182
0.818182 0.818182 1.31818 1.31818 1.31818 1.31818 1.31818 1.31818
1.31818 1.31818 1.31818 1.31818 0.818182 0.818182 0.818182 0.818182
0.818182 0.818182 0.818182 0.818182 0.818182 0.818182 1.31818 1.31818
1.31818 1.31818 1.31818 1.31818 1.31818 1.31818 1.31818 1.31818
0.818182 0.818182 0.818182 0.818182 0.818182 0.818182 0.818182 0.818182
0.818182 0.818182 1.31818 1.31818 1.31818 1.31818 1.31818 1.31818
1.31818 1.31818 1.31818 1.31818 0.818182 0.818182 0.818182 0.818182
0.818182 0.818182 0.818182 0.818182 0.818182 0.818182 1.31818 1.31818
1.31818 1.31818 1.31818 1.31818 1.31818 1.31818 1.31818 1.31818
0.818182 0.818182 0.818182 0.818182 0.818182 0.818182 0.818182 0.818182
0.818182 0.818182 1.31818 1.31818 1.31818 1.31818 1.31818 1.31818
1.31818 1.31818 1.31818 1.31818 0.818182 0.818182 0.818182 0.818182
0.818182 0.818182 0.818182 0.818182 0.818182 0.818182 1.31818 1.31818
1.31818 1.31818 1.31818 1.31818 1.31818 1.31818 1.31818 1.31818
0.818182 0.818182 0.818182 0.818182 0.818182 0.818182 0.818182 0.818182
0.818182 0.818182 1.31818 1.31818 1.31818 1.31818 1.31818 1.31818
1.31818 1.31818 1.31818 1.31818 0.818182 0.818182 0.818182 0.818182
0.818182 0.818182 0.818182 0.818182 0.818182 0.818182 1.31818 1.31818
1.31818 1.31818 1.31818 1.31818 1.31818 1.31818 1.31818 1.31818
0.818182 0.818182 0.818182 0.818182 0.818182 0.818182 0.818182 0.818182
0.818182 0.818182 1.31818 1.31818 1.31818 1.31818 1.31818 1.31818
1.31818 1.31818 1.31818 1.31818 0.818182 0.818182 0.818182 0.818182
0.818182 0.818182 0.818182 0.818182 0.818182 0.818182 1.31818 1.31818
1.31818 1.31818 1.31818 1.31818 1.31818 1.31818 1.31818 1.31818
0.818182 0.818182 0.818182 0.818182 0.818182 0.818182 0.818182 0.818182
0.818182 0.818182 1.31818 1.31818 1.31818 1.31818 1.31818 1.31818
1.31818 1.31818 1.31818 1.31818 0.818182 0.818182 0.818182 0.818182
0.818182 0.818182 0.818182 0.818182 0.818182 0.818182 1.31818 1.31818
1.31818 1.31818 1.31818 1.31818 1.31818 1.31818 1.31818 1.31818
0.818182 0.818182 0.818182 0.818182 0.818182 0.818182 0.818182 0.818182
0.818182 0.818182 1.31818 1.31818 1.31818 1.31818 1.31818 1.31818
1.31818 1.31818 1.31818 1.31818 0.818182 0.818182 0.818182 0.818182
0.818182 0.818182 0.818182 0.818182 0.818182 0.818182 1.31818 1.31818
1.31818 1.31818 1.31818 1.31818 1.31818 1.31818 1.31818 1.31818
0.818182 0.818182 0.818182 0.818182 0.818182 0.818182 0.818182 0.818182
0.818182 0.818182 1.31818 1.31818 1.31818 1.31818 1.31818 1.31818
1.31818 1.31818 1.31818 1.31818 0.818182 0.818182 0.818182 0.818182
0.818182 0.818182 0.818182 0.818182 0.818182 0.818182 1.31818 1.31818
1.31818 1.31818 1.31818 1.31818 1.31818 1.31818 1.31818 1.31818
0.818182 0.818182 0.818182 0.818182 0.818182 0.818182 0.818182 0.818182
0.818182 0.818182 1.31818 1.31818 1.31818 1.31818 1.31818 1.31818
1.31818 1.31818 1.31818 1.31818 0.818182 0.818182 0.818182 0.818182
0.818182 0.818182 0.818182 0.818182 0.818182 0.818182 1.31818 1.31818
1.31818 1.31818 1.31818 1.31818 1.31818 1.31818 1.31818 1.31818
0.818182 0.818182 0.818182 0.818182 0.818182 0.818182 0.818182 0.818182
0.818182 0.818182 1.31818 1.31818 1.31818 1.31818 1.31818 1.31818
1.31818 1.31818 1.31818 1.31818 0.818182 0.818182 0.818182 0.818182
0.818182 0.818182 0.818182 0.818182 0.818182 0.818182 1.31818 1.31818
1.31818 1.31818 1.31818 1.31818 1.31818 1.31818 1.31818 1.31818
0.818182 0.818182 0.818182 0.818182 0.818182 0.818182 0.818182 0.818182
0.818182 0.818182 1.31818 1.31818 1.31818 1.31818 1.31818 1.31818
1.31818 1.31818 1.31818 1.31818 0.818182 0.818182 0.818182 0.818182
0.818182 0.818182 0.818182 0.818182 0.818182 0.818182 1.31818 1.31818
1.31818 1.31818 1.31818 1.31818 1.31818 1.31818 1.31818 1.31818
1.09091 1.09091 1.09091 1.09091 1.09091 1.09091 1.09091 1.09091
1.09091 1.09091 1.59091 1.59091 1.59091 1.59091 1.59091 1.59091
1.59091 1.59091 1.59091 1.59091 1.09091 1.09091 1.09091 1.09091
1.09091 1.09091 1.09091 1.09091 1.09091 1.09091 1.59091 1.59091
1.59091 1.59091 1.59091 1.59091 1.59091 1.59091 1.59091 1.59091
1.09091 1.09091 1.09091 1.09091 1.09091 1.09091 1.09091 1.09091
1.09091 1.09091 1.59091 1.59091 1.59091 1.59091 1.59091 1.59091
1.59091 1.59091 1.59091 1.59091 1.09091 1.09091 1.09091 1.09091
1.09091 1.09091 1.09091 1.09091 1.09091 1.09091 1.59091 1.59091
1.59091 1.59091 1.59091 1.59091 1.59091 1.59091 1.59091 1.59091
1.09091 1.09091 1.09091 1.09091 1.09091 1.09091 1.09091 1.09091
1.09091 1.09091 1.59091 1.59091 1.59091 1.59091 1.59091 1.59091
1.59091 1.59091 1.59091 1.59091 1.09091 1.09091 1.09091 1.09091
1.09091 1.09091 1.09091 1.09091 1.09091 1.09091 1.59091 1.59091
1.59091 1.59091 1.59091 1.59091 1.59091 1.59091 1.59091 1.59091
1.09091 1.09091 1.09091 1.09091 1.09091 1.09091 1.09091 1.09091
1.09091 1.09091 1.59091 1.59091 1.59091 1.59091 1.59091 1.59091
1.59091 1.59091 1.59091 1.59091 1.09091 1.09091 1.09091 1.09091
1.09091 1.09091 1.09091 1.09091 1.09091 1.09091 1.59091 1.59091
1.59091 1.59091 1.59091 1.59091 1.59091 1.59091 1.59091 1.59091
1.09091 1.09091 1.09091 1.09091 1.09091 1.09091 1.09091 1.09091
1.09091 1.09091 1.59091 1.59091 1.59091 1.59091 1.59091 1.59091
1.59091 1.59091 1.59091 1.59091 1.09091 1.09091 1.09091 1.09091
1.09091 1.09091 1.09091 1.09091 1.09091 1.09091 1.59091 1.59091
1.59091 1.59091 1.59091 1.59091 1.59091 1.59091 1.59091 1.59091
1.09091 1.09091 1.09091 1.09091 1.09091 1.09091 1.09091 1.09091
1.09091 1.09091 1.59091 1.59091 1.59091 1.59091 1.59091 1.59091
1.59091 1.59091 1.59091 1.59091 1.09091 1.09091 1.09091 1.09091
1.09091 1.09091 1.09091 1.09091 1.09091 1.09091 1.59091 1.59091
1.59091 1.59091 1.59091 1.59091 1.59091 1.59091 1.59091 1.59091
1.09091 1.09091 1.09091 1.09091 1.09091 1.09091 1.09091 1.09091
1.09091 1.09091 1.59091 1.59091 1.59091 1.59091 1.59091 1.59091
1.59091 1.59091 1.59091 1.59091 1.09091 1.09091 1.09091 1.09091
1.09091 1.09091 1.09091 1.09091 1.09091 1.09091 1.59091 1.59091
1.59091 1.59091 1.59091 1.59091 1.59091 1.59091 1.59091 1.59091
1.09091 1.09091 1.09091 1.09091 1.09091 1.09091 1.09091 1.09091
1.09091 1.09091 1.59091 1.59091 1.59091 1.59091 1.59091 1.59091
1.59091 1.59091 1.59091 1.59091 1.09091 1.09091 1.09091 1.09091
1.09091 1.09091 1.09091 1.09091 1.09091 1.09091 1.59091 1.59091
1.59091 1.59091 1.59091 1.59091 1.59091 1.59091 1.59091 1.59091
1.09091 1.09091 1.09091 1.09091 1.09091 1.09091 1.09091 1.09091
1.09091 1.09091 1.59091 1.59091 1.59091 1.59091 1.59091 1.59091
1.59091 1.59091 1.59091 1.59091 1.09091 1.09091 1.09091 1.09091
1.09091 1.09091 1.09091 1.09091 1.09091 1.09091 1.59091 1.59091
1.59091 1.59091 1.59091 1.59091 1.59091 1.59091 1.59091 1.59091
1.09091 1.09091 1.09091 1.09091 1.09091 1.09091 1.09091 1.09091
1.09091 1.09091 1.59091 1.59091 1.59091 1.59091 1.59091 1.59091
1.59091 1.59091 1.59091 1.59091 1.09091 1.09091 1.09091 1.09091
1.09091 1.09091 1.09091 1.09091 1.09091 1.09091 1.59091 1.59091
1.59091 1.59091 1.59091 1.59091 1.59091 1.59091 1.59091 1.59091
1.09091 1.09091 1.09091 1.09091 1.09091 1.09091 1.09091 1.09091
1.09091 1.09091 1.59091 1.59091 1.59091 1.59091 1.59091 1.59091
1.59091 1.59091 1.59091 1.59091 1.09091 1.09091 1.09091 1.09091