SPECGRID
40 40 10 1 F
/

COORD
0 0 2000 0 0 2100
45 0 2000 54.0909 0 2100
90 0 2000 108.182 0 2100
135 0 2000 162.273 0 2100
180 0 2000 216.364 0 2100
225 0 2000 270.455 0 2100
270 0 2000 324.545 0 2100
315 0 2000 378.636 0 2100
360 0 2000 432.727 0 2100
405 0 2000 486.818 0 2100
450 0 2000 540.909 0 2100
495 0 2000 595 0 2100
540 0 2000 649.091 0 2100
585 0 2000 703.182 0 2100
630 0 2000 757.273 0 2100
675 0 2000 811.364 0 2100
720 0 2000 865.455 0 2100
765 0 2000 919.545 0 2100
810 0 2000 973.636 0 2100
855 0 2000 1027.73 0 2100
900 0 2000 1081.82 0 2100
950 0 2000 1131.82 0 2100
1005 0 2000 1177.73 0 2100
1060 0 2000 1223.64 0 2100
1115 0 2000 1269.55 0 2100
1170 0 2000 1315.45 0 2100
1225 0 2000 1361.36 0 2100
1280 0 2000 1407.27 0 2100
1335 0 2000 1453.18 0 2100
1390 0 2000 1499.09 0 2100
1445 0 2000 1545 0 2100
1500 0 2000 1590.91 0 2100
1555 0 2000 1636.82 0 2100
1610 0 2000 1682.73 0 2100
1665 0 2000 1728.64 0 2100
1720 0 2000 1774.55 0 2100
1775 0 2000 1820.45 0 2100
1830 0 2000 1866.36 0 2100
1885 0 2000 1912.27 0 2100
1940 0 2000 1958.18 0 2100
1995 0 2000 2004.09 0 2100
0 50 2000 0 50 2100
45 50 2000 54.0909 50 2100
90 50 2000 108.182 50 2100
135 50 2000 162.273 50 2100
180 50 2000 216.364 50 2100
225 50 2000 270.455 50 2100
270 50 2000 324.545 50 2100
315 50 2000 378.636 50 2100
360 50 2000 432.727 50 2100
405 50 2000 486.818 50 2100
450 50 2000 540.909 50 2100
495 50 2000 595 50 2100
540 50 2000 649.091 50 2100
585 50 2000 703.182 50 2100
630 50 2000 757.273 50 2100
675 50 2000 811.364 50 2100
720 50 2000 865.455 50 2100
765 50 2000 919.545 50 2100
810 50 2000 973.636 50 2100
855 50 2000 1027.73 50 2100
900 50 2000 1081.82 50 2100
950 50 2000 1131.82 50 2100
1005 50 2000 1177.73 50 2100
1060 50 2000 1223.64 50 2100
1115 50 2000 1269.55 50 2100
1170 50 2000 1315.45 50 2100
1225 50 2000 1361.36 50 2100
1280 50 2000 1407.27 50 2100
1335 50 2000 1453.18 50 2100
1390 50 2000 1499.09 50 2100
1445 50 2000 1545 50 2100
1500 50 2000 1590.91 50 2100
1555 50 2000 1636.82 50 2100
1610 50 2000 1682.73 50 2100
1665 50 2000 1728.64 50 2100
1720 50 2000 1774.55 50 2100
1775 50 2000 1820.45 50 2100
1830 50 2000 1866.36 50 2100
1885 50 2000 1912.27 50 2100
1940 50 2000 1958.18 50 2100
1995 50 2000 2004.09 50 2100
0 100 2000 0 100 2100
45 100 2000 54.0909 100 2100
90 100 2000 108.182 100 2100
135 100 2000 162.273 100 2100
180 100 2000 216.364 100 2100
225 100 2000 270.455 100 2100
270 100 2000 324.545 100 2100
315 100 2000 378.636 100 2100
360 100 2000 432.727 100 2100
405 100 2000 486.818 100 2100
450 100 2000 540.909 100 2100
495 100 2000 595 100 2100
540 100 2000 649.091 100 2100
585 100 2000 703.182 100 2100
630 100 2000 757.273 100 2100
675 100 2000 811.364 100 2100
720 100 2000 865.455 100 2100
765 100 2000 919.545 100 2100
810 100 2000 973.636 100 2100
855 100 2000 1027.73 100 2100
900 100 2000 1081.82 100 2100
950 100 2000 1131.82 100 2100
1005 100 2000 1177.73 100 2100
1060 100 2000 1223.64 100 2100
1115 100 2000 1269.55 100 2100
1170 100 2000 1315.45 100 2100
1225 100 2000 1361.36 100 2100
1280 100 2000 1407.27 100 2100
1335 100 2000 1453.18 100 2100
1390 100 2000 1499.09 100 2100
1445 100 2000 1545 100 2100
1500 100 2000 1590.91 100 2100
1555 100 2000 1636.82 100 2100
1610 100 2000 1682.73 100 2100
1665 100 2000 1728.64 100 2100
1720 100 2000 1774.55 100 2100
1775 100 2000 1820.45 100 2100
1830 100 2000 1866.36 100 2100
1885 100 2000 1912.27 100 2100
1940 100 2000 1958.18 100 2100
1995 100 2000 2004.09 100 2100
0 150 2000 0 150 2100
45 150 2000 54.0909 150 2100
90 150 2000 108.182 150 2100
135 150 2000 162.273 150 2100
180 150 2000 216.364 150 2100
225 150 2000 270.455 150 2100
270 150 2000 324.545 150 2100
315 150 2000 378.636 150 2100
360 150 2000 432.727 150 2100
405 150 2000 486.818 150 2100
450 150 2000 540.909 150 2100
495 150 2000 595 150 2100
540 150 2000 649.091 150 2100
585 150 2000 703.182 150 2100
630 150 2000 757.273 150 2100
675 150 2000 811.364 150 2100
720 150 2000 865.455 150 2100
765 150 2000 919.545 150 2100
810 150 2000 973.636 150 2100
855 150 2000 1027.73 150 2100
900 150 2000 1081.82 150 2100
950 150 2000 1131.82 150 2100
1005 150 2000 1177.73 150 2100
1060 150 2000 1223.64 150 2100
1115 150 2000 1269.55 150 2100
1170 150 2000 1315.45 150 2100
1225 150 2000 1361.36 150 2100
1280 150 2000 1407.27 150 2100
1335 150 2000 1453.18 150 2100
1390 150 2000 1499.09 150 2100
1445 150 2000 1545 150 2100
1500 150 2000 1590.91 150 2100
1555 150 2000 1636.82 150 2100
1610 150 2000 1682.73 150 2100
1665 150 2000 1728.64 150 2100
1720 150 2000 1774.55 150 2100
1775 150 2000 1820.45 150 2100
1830 150 2000 1866.36 150 2100
1885 150 2000 1912.27 150 2100
1940 150 2000 1958.18 150 2100
1995 150 2000 2004.09 150 2100
0 200 2000 0 200 2100
45 200 2000 54.0909 200 2100
90 200 2000 108.182 200 2100
135 200 2000 162.273 200 2100
180 200 2000 216.364 200 2100
225 200 2000 270.455 200 2100
270 200 2000 324.545 200 2100
315 200 2000 378.636 200 2100
360 200 2000 432.727 200 2100
405 200 2000 486.818 200 2100
450 200 2000 540.909 200 2100
495 200 2000 595 200 2100
540 200 2000 649.091 200 2100
585 200 2000 703.182 200 2100
630 200 2000 757.273 200 2100
675 200 2000 811.364 200 2100
720 200 2000 865.455 200 2100
765 200 2000 919.545 200 2100
810 200 2000 973.636 200 2100
855 200 2000 1027.73 200 2100
900 200 2000 1081.82 200 2100
950 200 2000 1131.82 200 2100
1005 200 2000 1177.73 200 2100
1060 200 2000 1223.64 200 2100
1115 200 2000 1269.55 200 2100
1170 200 2000 1315.45 200 2100
1225 200 2000 1361.36 200 2100
1280 200 2000 1407.27 200 2100
1335 200 2000 1453.18 200 2100
1390 200 2000 1499.09 200 2100
1445 200 2000 1545 200 2100
1500 200 2000 1590.91 200 2100
1555 200 2000 1636.82 200 2100
1610 200 2000 1682.73 200 2100
1665 200 2000 1728.64 200 2100
1720 200 2000 1774.55 200 2100
1775 200 2000 1820.45 200 2100
1830 200 2000 1866.36 200 2100
1885 200 2000 1912.27 200 2100
1940 200 2000 1958.18 200 2100
1995 200 2000 2004.09 200 2100
0 250 2000 0 250 2100
45 250 2000 54.0909 250 2100
90 250 2000 108.182 250 2100
135 250 2000 162.273 250 2100
180 250 2000 216.364 250 2100
225 250 2000 270.455 250 2100
270 250 2000 324.545 250 2100
315 250 2000 378.636 250 2100
360 250 2000 432.727 250 2100
405 250 2000 486.818 250 2100
450 250 2000 540.909 250 2100
495 250 2000 595 250 2100
540 250 2000 649.091 250 2100
585 250 2000 703.182 250 2100
630 250 2000 757.273 250 2100
675 250 2000 811.364 250 2100
720 250 2000 865.455 250 2100
765 250 2000 919.545 250 2100
810 250 2000 973.636 250 2100
855 250 2000 1027.73 250 2100
900 250 2000 1081.82 250 2100
950 250 2000 1131.82 250 2100
1005 250 2000 1177.73 250 2100
1060 250 2000 1223.64 250 2100
1115 250 2000 1269.55 250 2100
1170 250 2000 1315.45 250 2100
1225 250 2000 1361.36 250 2100
1280 250 2000 1407.27 250 2100
1335 250 2000 1453.18 250 2100
1390 250 2000 1499.09 250 2100
1445 250 2000 1545 250 2100
1500 250 2000 1590.91 250 2100
1555 250 2000 1636.82 250 2100
1610 250 2000 1682.73 250 2100
1665 250 2000 1728.64 250 2100
1720 250 2000 1774.55 250 2100
1775 250 2000 1820.45 250 2100
1830 250 2000 1866.36 250 2100
1885 250 2000 1912.27 250 2100
1940 250 2000 1958.18 250 2100
1995 250 2000 2004.09 250 2100
0 300 2000 0 300 2100
45 300 2000 54.0909 300 2100
90 300 2000 108.182 300 2100
135 300 2000 162.273 300 2100
180 300 2000 216.364 300 2100
225 300 2000 270.455 300 2100
270 300 2000 324.545 300 2100
315 300 2000 378.636 300 2100
360 300 2000 432.727 300 2100
405 300 2000 486.818 300 2100
450 300 2000 540.909 300 2100
495 300 2000 595 300 2100
540 300 2000 649.091 300 2100
585 300 2000 703.182 300 2100
630 300 2000 757.273 300 2100
675 300 2000 811.364 300 2100
720 300 2000 865.455 300 2100
765 300 2000 919.545 300 2100
810 300 2000 973.636 300 2100
855 300 2000 1027.73 300 2100
900 300 2000 1081.82 300 2100
950 300 2000 1131.82 300 2100
1005 300 2000 1177.73 300 2100
1060 300 2000 1223.64 300 2100
1115 300 2000 1269.55 300 2100
1170 300 2000 1315.45 300 2100
1225 300 2000 1361.36 300 2100
1280 300 2000 1407.27 300 2100
1335 300 2000 1453.18 300 2100
1390 300 2000 1499.09 300 2100
1445 300 2000 1545 300 2100
1500 300 2000 1590.91 300 2100
1555 300 2000 1636.82 300 2100
1610 300 2000 1682.73 300 2100
1665 300 2000 1728.64 300 2100
1720 300 2000 1774.55 300 2100
1775 300 2000 1820.45 300 2100
1830 300 2000 1866.36 300 2100
1885 300 2000 1912.27 300 2100
1940 300 2000 1958.18 300 2100
1995 300 2000 2004.09 300 2100
0 350 2000 0 350 2100
45 350 2000 54.0909 350 2100
90 350 2000 108.182 350 2100
135 350 2000 162.273 350 2100
180 350 2000 216.364 350 2100
225 350 2000 270.455 350 2100
270 350 2000 324.545 350 2100
315 350 2000 378.636 350 2100
360 350 2000 432.727 350 2100
405 350 2000 486.818 350 2100
450 350 2000 540.909 350 2100
495 350 2000 595 350 2100
540 350 2000 649.091 350 2100
585 350 2000 703.182 350 2100
630 350 2000 757.273 350 2100
675 350 2000 811.364 350 2100
720 350 2000 865.455 350 2100
765 350 2000 919.545 350 2100
810 350 2000 973.636 350 2100
855 350 2000 1027.73 350 2100
900 350 2000 1081.82 350 2100
950 350 2000 1131.82 350 2100
1005 350 2000 1177.73 350 2100
1060 350 2000 1223.64 350 2100
1115 350 2000 1269.55 350 2100
1170 350 2000 1315.45 350 2100
1225 350 2000 1361.36 350 2100
1280 350 2000 1407.27 350 2100
1335 350 2000 1453.18 350 2100
1390 350 2000 1499.09 350 2100
1445 350 2000 1545 350 2100
1500 350 2000 1590.91 350 2100
1555 350 2000 1636.82 350 2100
1610 350 2000 1682.73 350 2100
1665 350 2000 1728.64 350 2100
1720 350 2000 1774.55 350 2100
1775 350 2000 1820.45 350 2100
1830 350 2000 1866.36 350 2100
1885 350 2000 1912.27 350 2100
1940 350 2000 1958.18 350 2100
1995 350 2000 2004.09 350 2100
0 400 2000 0 400 2100
45 400 2000 54.0909 400 2100
90 400 2000 108.182 400 2100
135 400 2000 162.273 400 2100
180 400 2000 216.364 400 2100
225 400 2000 270.455 400 2100
270 400 2000 324.545 400 2100
315 400 2000 378.636 400 2100
360 400 2000 432.727 400 2100
405 400 2000 486.818 400 2100
450 400 2000 540.909 400 2100
495 400 2000 595 400 2100
540 400 2000 649.091 400 2100
585 400 2000 703.182 400 2100
630 400 2000 757.273 400 2100
675 400 2000 811.364 400 2100
720 400 2000 865.455 400 2100
765 400 2000 919.545 400 2100
810 400 2000 973.636 400 2100
855 400 2000 1027.73 400 2100
900 400 2000 1081.82 400 2100
950 400 2000 1131.82 400 2100
1005 400 2000 1177.73 400 2100
1060 400 2000 1223.64 400 2100
1115 400 2000 1269.55 400 2100
1170 400 2000 1315.45 400 2100
1225 400 2000 1361.36 400 2100
1280 400 2000 1407.27 400 2100
1335 400 2000 1453.18 400 2100
1390 400 2000 1499.09 400 2100
1445 400 2000 1545 400 2100
1500 400 2000 1590.91 400 2100
1555 400 2000 1636.82 400 2100
1610 400 2000 1682.73 400 2100
1665 400 2000 1728.64 400 2100
1720 400 2000 1774.55 400 2100
1775 400 2000 1820.45 400 2100
1830 400 2000 1866.36 400 2100
1885 400 2000 1912.27 400 2100
1940 400 2000 1958.18 400 2100
1995 400 2000 2004.09 400 2100
0 450 2000 0 450 2100
45 450 2000 54.0909 450 2100
90 450 2000 108.182 450 2100
135 450 2000 162.273 450 2100
180 450 2000 216.364 450 2100
225 450 2000 270.455 450 2100
270 450 2000 324.545 450 2100
315 450 2000 378.636 450 2100
360 450 2000 432.727 450 2100
405 450 2000 486.818 450 2100
450 450 2000 540.909 450 2100
495 450 2000 595 450 2100
540 450 2000 649.091 450 2100
585 450 2000 703.182 450 2100
630 450 2000 757.273 450 2100
675 450 2000 811.364 450 2100
720 450 2000 865.455 450 2100
765 450 2000 919.545 450 2100
810 450 2000 973.636 450 2100
855 450 2000 1027.73 450 2100
900 450 2000 1081.82 450 2100
950 450 2000 1131.82 450 2100
1005 450 2000 1177.73 450 2100
1060 450 2000 1223.64 450 2100
1115 450 2000 1269.55 450 2100
1170 450 2000 1315.45 450 2100
1225 450 2000 1361.36 450 2100
1280 450 2000 1407.27 450 2100
1335 450 2000 1453.18 450 2100
1390 450 2000 1499.09 450 2100
1445 450 2000 1545 450 2100
1500 450 2000 1590.91 450 2100
1555 450 2000 1636.82 450 2100
1610 450 2000 1682.73 450 2100
1665 450 2000 1728.64 450 2100
1720 450 2000 1774.55 450 2100
1775 450 2000 1820.45 450 2100
1830 450 2000 1866.36 450 2100
1885 450 2000 1912.27 450 2100
1940 450 2000 1958.18 450 2100
1995 450 2000 2004.09 450 2100
0 500 2000 0 500 2100
45 500 2000 54.0909 500 2100
90 500 2000 108.182 500 2100
135 500 2000 162.273 500 2100
180 500 2000 216.364 500 2100
225 500 2000 270.455 500 2100
270 500 2000 324.545 500 2100
315 500 2000 378.636 500 2100
360 500 2000 432.727 500 2100
405 500 2000 486.818 500 2100
450 500 2000 540.909 500 2100
495 500 2000 595 500 2100
540 500 2000 649.091 500 2100
585 500 2000 703.182 500 2100
630 500 2000 757.273 500 2100
675 500 2000 811.364 500 2100
720 500 2000 865.455 500 2100
765 500 2000 919.545 500 2100
810 500 2000 973.636 500 2100
855 500 2000 1027.73 500 2100
900 500 2000 1081.82 500 2100
950 500 2000 1131.82 500 2100
1005 500 2000 1177.73 500 2100
1060 500 2000 1223.64 500 2100
1115 500 2000 1269.55 500 2100
1170 500 2000 1315.45 500 2100
1225 500 2000 1361.36 500 2100
1280 500 2000 1407.27 500 2100
1335 500 2000 1453.18 500 2100
1390 500 2000 1499.09 500 2100
1445 500 2000 1545 500 2100
1500 500 2000 1590.91 500 2100
1555 500 2000 1636.82 500 2100
1610 500 2000 1682.73 500 2100
1665 500 2000 1728.64 500 2100
1720 500 2000 1774.55 500 2100
1775 500 2000 1820.45 500 2100
1830 500 2000 1866.36 500 2100
1885 500 2000 1912.27 500 2100
1940 500 2000 1958.18 500 2100
1995 500 2000 2004.09 500 2100
0 550 2000 0 550 2100
45 550 2000 54.0909 550 2100
90 550 2000 108.182 550 2100
135 550 2000 162.273 550 2100
180 550 2000 216.364 550 2100
225 550 2000 270.455 550 2100
270 550 2000 324.545 550 2100
315 550 2000 378.636 550 2100
360 550 2000 432.727 550 2100
405 550 2000 486.818 550 2100
450 550 2000 540.909 550 2100
495 550 2000 595 550 2100
540 550 2000 649.091 550 2100
585 550 2000 703.182 550 2100
630 550 2000 757.273 550 2100
675 550 2000 811.364 550 2100
720 550 2000 865.455 550 2100
765 550 2000 919.545 550 2100
810 550 2000 973.636 550 2100
855 550 2000 1027.73 550 2100
900 550 2000 1081.82 550 2100
950 550 2000 1131.82 550 2100
1005 550 2000 1177.73 550 2100
1060 550 2000 1223.64 550 2100
1115 550 2000 1269.55 550 2100
1170 550 2000 1315.45 550 2100
1225 550 2000 1361.36 550 2100
1280 550 2000 1407.27 550 2100
1335 550 2000 1453.18 550 2100
1390 550 2000 1499.09 550 2100
1445 550 2000 1545 550 2100
1500 550 2000 1590.91 550 2100
1555 550 2000 1636.82 550 2100
1610 550 2000 1682.73 550 2100
1665 550 2000 1728.64 550 2100
1720 550 2000 1774.55 550 2100
1775 550 2000 1820.45 550 2100
1830 550 2000 1866.36 550 2100
1885 550 2000 1912.27 550 2100
1940 550 2000 1958.18 550 2100
1995 550 2000 2004.09 550 2100
0 600 2000 0 600 2100
45 600 2000 54.0909 600 2100
90 600 2000 108.182 600 2100
135 600 2000 162.273 600 2100
180 600 2000 216.364 600 2100
225 600 2000 270.455 600 2100
270 600 2000 324.545 600 2100
315 600 2000 378.636 600 2100
360 600 2000 432.727 600 2100
405 600 2000 486.818 600 2100
450 600 2000 540.909 600 2100
495 600 2000 595 600 2100
540 600 2000 649.091 600 2100
585 600 2000 703.182 600 2100
630 600 2000 757.273 600 2100
675 600 2000 811.364 600 2100
720 600 2000 865.455 600 2100
765 600 2000 919.545 600 2100
810 600 2000 973.636 600 2100
855 600 2000 1027.73 600 2100
900 600 2000 1081.82 600 2100
950 600 2000 1131.82 600 2100
1005 600 2000 1177.73 600 2100
1060 600 2000 1223.64 600 2100
1115 600 2000 1269.55 600 2100
1170 600 2000 1315.45 600 2100
1225 600 2000 1361.36 600 2100
1280 600 2000 1407.27 600 2100
1335 600 2000 1453.18 600 2100
1390 600 2000 1499.09 600 2100
1445 600 2000 1545 600 2100
1500 600 2000 1590.91 600 2100
1555 600 2000 1636.82 600 2100
1610 600 2000 1682.73 600 2100
1665 600 2000 1728.64 600 2100
1720 600 2000 1774.55 600 2100
1775 600 2000 1820.45 600 2100
1830 600 2000 1866.36 600 2100
1885 600 2000 1912.27 600 2100
1940 600 2000 1958.18 600 2100
1995 600 2000 2004.09 600 2100
0 650 2000 0 650 2100
45 650 2000 54.0909 650 2100
90 650 2000 108.182 650 2100
135 650 2000 162.273 650 2100
180 650 2000 216.364 650 2100
225 650 2000 270.455 650 2100
270 650 2000 324.545 650 2100
315 650 2000 378.636 650 2100
360 650 2000 432.727 650 2100
405 650 2000 486.818 650 2100
450 650 2000 540.909 650 2100
495 650 2000 595 650 2100
540 650 2000 649.091 650 2100
585 650 2000 703.182 650 2100
630 650 2000 757.273 650 2100
675 650 2000 811.364 650 2100
720 650 2000 865.455 650 2100
765 650 2000 919.545 650 2100
810 650 2000 973.636 650 2100
855 650 2000 1027.73 650 2100
900 650 2000 1081.82 650 2100
950 650 2000 1131.82 650 2100
1005 650 2000 1177.73 650 2100
1060 650 2000 1223.64 650 2100
1115 650 2000 1269.55 650 2100
1170 650 2000 1315.45 650 2100
1225 650 2000 1361.36 650 2100
1280 650 2000 1407.27 650 2100
1335 650 2000 1453.18 650 2100
1390 650 2000 1499.09 650 2100
1445 650 2000 1545 650 2100
1500 650 2000 1590.91 650 2100
1555 650 2000 1636.82 650 2100
1610 650 2000 1682.73 650 2100
1665 650 2000 1728.64 650 2100
1720 650 2000 1774.55 650 2100
1775 650 2000 1820.45 650 2100
1830 650 2000 1866.36 650 2100
1885 650 2000 1912.27 650 2100
1940 650 2000 1958.18 650 2100
1995 650 2000 2004.09 650 2100
0 700 2000 0 700 2100
45 700 2000 54.0909 700 2100
90 700 2000 108.182 700 2100
135 700 2000 162.273 700 2100
180 700 2000 216.364 700 2100
225 700 2000 270.455 700 2100
270 700 2000 324.545 700 2100
315 700 2000 378.636 700 2100
360 700 2000 432.727 700 2100
405 700 2000 486.818 700 2100
450 700 2000 540.909 700 2100
495 700 2000 595 700 2100
540 700 2000 649.091 700 2100
585 700 2000 703.182 700 2100
630 700 2000 757.273 700 2100
675 700 2000 811.364 700 2100
720 700 2000 865.455 700 2100
765 700 2000 919.545 700 2100
810 700 2000 973.636 700 2100
855 700 2000 1027.73 700 2100
900 700 2000 1081.82 700 2100
950 700 2000 1131.82 700 2100
1005 700 2000 1177.73 700 2100
1060 700 2000 1223.64 700 2100
1115 700 2000 1269.55 700 2100
1170 700 2000 1315.45 700 2100
1225 700 2000 1361.36 700 2100
1280 700 2000 1407.27 700 2100
1335 700 2000 1453.18 700 2100
1390 700 2000 1499.09 700 2100
1445 700 2000 1545 700 2100
1500 700 2000 1590.91 700 2100
1555 700 2000 1636.82 700 2100
1610 700 2000 1682.73 700 2100
1665 700 2000 1728.64 700 2100
1720 700 2000 1774.55 700 2100
1775 700 2000 1820.45 700 2100
1830 700 2000 1866.36 700 2100
1885 700 2000 1912.27 700 2100
1940 700 2000 1958.18 700 2100
1995 700 2000 2004.09 700 2100
0 750 2000 0 750 2100
45 750 2000 54.0909 750 2100
90 750 2000 108.182 750 2100
135 750 2000 162.273 750 2100
180 750 2000 216.364 750 2100
225 750 2000 270.455 750 2100
270 750 2000 324.545 750 2100
315 750 2000 378.636 750 2100
360 750 2000 432.727 750 2100
405 750 2000 486.818 750 2100
450 750 2000 540.909 750 2100
495 750 2000 595 750 2100
540 750 2000 649.091 750 2100
585 750 2000 703.182 750 2100
630 750 2000 757.273 750 2100
675 750 2000 811.364 750 2100
720 750 2000 865.455 750 2100
765 750 2000 919.545 750 2100
810 750 2000 973.636 750 2100
855 750 2000 1027.73 750 2100
900 750 2000 1081.82 750 2100
950 750 2000 1131.82 750 2100
1005 750 2000 1177.73 750 2100
1060 750 2000 1223.64 750 2100
1115 750 2000 1269.55 750 2100
1170 750 2000 1315.45 750 2100
1225 750 2000 1361.36 750 2100
1280 750 2000 1407.27 750 2100
1335 750 2000 1453.18 750 2100
1390 750 2000 1499.09 750 2100
1445 750 2000 1545 750 2100
1500 750 2000 1590.91 750 2100
1555 750 2000 1636.82 750 2100
1610 750 2000 1682.73 750 2100
1665 750 2000 1728.64 750 2100
1720 750 2000 1774.55 750 2100
1775 750 2000 1820.45 750 2100
1830 750 2000 1866.36 750 2100
1885 750 2000 1912.27 750 2100
1940 750 2000 1958.18 750 2100
1995 750 2000 2004.09 750 2100
0 800 2000 0 800 2100
45 800 2000 54.0909 800 2100
90 800 2000 108.182 800 2100
135 800 2000 162.273 800 2100
180 800 2000 216.364 800 2100
225 800 2000 270.455 800 2100
270 800 2000 324.545 800 2100
315 800 2000 378.636 800 2100
360 800 2000 432.727 800 2100
405 800 2000 486.818 800 2100
450 800 2000 540.909 800 2100
495 800 2000 595 800 2100
540 800 2000 649.091 800 2100
585 800 2000 703.182 800 2100
630 800 2000 757.273 800 2100
675 800 2000 811.364 800 2100
720 800 2000 865.455 800 2100
765 800 2000 919.545 800 2100
810 800 2000 973.636 800 2100
855 800 2000 1027.73 800 2100
900 800 2000 1081.82 800 2100
950 800 2000 1131.82 800 2100
1005 800 2000 1177.73 800 2100
1060 800 2000 1223.64 800 2100
1115 800 2000 1269.55 800 2100
1170 800 2000 1315.45 800 2100
1225 800 2000 1361.36 800 2100
1280 800 2000 1407.27 800 2100
1335 800 2000 1453.18 800 2100
1390 800 2000 1499.09 800 2100
1445 800 2000 1545 800 2100
1500 800 2000 1590.91 800 2100
1555 800 2000 1636.82 800 2100
1610 800 2000 1682.73 800 2100
1665 800 2000 1728.64 800 2100
1720 800 2000 1774.55 800 2100
1775 800 2000 1820.45 800 2100
1830 800 2000 1866.36 800 2100
1885 800 2000 1912.27 800 2100
1940 800 2000 1958.18 800 2100
1995 800 2000 2004.09 800 2100
0 850 2000 0 850 2100
45 850 2000 54.0909 850 2100
90 850 2000 108.182 850 2100
135 850 2000 162.273 850 2100
180 850 2000 216.364 850 2100
225 850 2000 270.455 850 2100
270 850 2000 324.545 850 2100
315 850 2000 378.636 850 2100
360 850 2000 432.727 850 2100
405 850 2000 486.818 850 2100
450 850 2000 540.909 850 2100
495 850 2000 595 850 2100
540 850 2000 649.091 850 2100
585 850 2000 703.182 850 2100
630 850 2000 757.273 850 2100
675 850 2000 811.364 850 2100
720 850 2000 865.455 850 2100
765 850 2000 919.545 850 2100
810 850 2000 973.636 850 2100
855 850 2000 1027.73 850 2100
900 850 2000 1081.82 850 2100
950 850 2000 1131.82 850 2100
1005 850 2000 1177.73 850 2100
1060 850 2000 1223.64 850 2100
1115 850 2000 1269.55 850 2100
1170 850 2000 1315.45 850 2100
1225 850 2000 1361.36 850 2100
1280 850 2000 1407.27 850 2100
1335 850 2000 1453.18 850 2100
1390 850 2000 1499.09 850 2100
1445 850 2000 1545 850 2100
1500 850 2000 1590.91 850 2100
1555 850 2000 1636.82 850 2100
1610 850 2000 1682.73 850 2100
1665 850 2000 1728.64 850 2100
1720 850 2000 1774.55 850 2100
1775 850 2000 1820.45 850 2100
1830 850 2000 1866.36 850 2100
1885 850 2000 1912.27 850 2100
1940 850 2000 1958.18 850 2100
1995 850 2000 2004.09 850 2100
0 900 2000 0 900 2100
45 900 2000 54.0909 900 2100
90 900 2000 108.182 900 2100
135 900 2000 162.273 900 2100
180 900 2000 216.364 900 2100
225 900 2000 270.455 900 2100
270 900 2000 324.545 900 2100
315 900 2000 378.636 900 2100
360 900 2000 432.727 900 2100
405 900 2000 486.818 900 2100
450 900 2000 540.909 900 2100
495 900 2000 595 900 2100
540 900 2000 649.091 900 2100
585 900 2000 703.182 900 2100
630 900 2000 757.273 900 2100
675 900 2000 811.364 900 2100
720 900 2000 865.455 900 2100
765 900 2000 919.545 900 2100
810 900 2000 973.636 900 2100
855 900 2000 1027.73 900 2100
900 900 2000 1081.82 900 2100
950 900 2000 1131.82 900 2100
1005 900 2000 1177.73 900 2100
1060 900 2000 1223.64 900 2100
1115 900 2000 1269.55 900 2100
1170 900 2000 1315.45 900 2100
1225 900 2000 1361.36 900 2100
1280 900 2000 1407.27 900 2100
1335 900 2000 1453.18 900 2100
1390 900 2000 1499.09 900 2100
1445 900 2000 1545 900 2100
1500 900 2000 1590.91 900 2100
1555 900 2000 1636.82 900 2100
1610 900 2000 1682.73 900 2100
1665 900 2000 1728.64 900 2100
1720 900 2000 1774.55 900 2100
1775 900 2000 1820.45 900 2100
1830 900 2000 1866.36 900 2100
1885 900 2000 1912.27 900 2100
1940 900 2000 1958.18 900 2100
1995 900 2000 2004.09 900 2100
0 950 2000 0 950 2100
45 950 2000 54.0909 950 2100
90 950 2000 108.182 950 2100
135 950 2000 162.273 950 2100
180 950 2000 216.364 950 2100
225 950 2000 270.455 950 2100
270 950 2000 324.545 950 2100
315 950 2000 378.636 950 2100
360 950 2000 432.727 950 2100
405 950 2000 486.818 950 2100
450 950 2000 540.909 950 2100
495 950 2000 595 950 2100
540 950 2000 649.091 950 2100
585 950 2000 703.182 950 2100
630 950 2000 757.273 950 2100
675 950 2000 811.364 950 2100
720 950 2000 865.455 950 2100
765 950 2000 919.545 950 2100
810 950 2000 973.636 950 2100
855 950 2000 1027.73 950 2100
900 950 2000 1081.82 950 2100
950 950 2000 1131.82 950 2100
1005 950 2000 1177.73 950 2100
1060 950 2000 1223.64 950 2100
1115 950 2000 1269.55 950 2100
1170 950 2000 1315.45 950 2100
1225 950 2000 1361.36 950 2100
1280 950 2000 1407.27 950 2100
1335 950 2000 1453.18 950 2100
1390 950 2000 1499.09 950 2100
1445 950 2000 1545 950 2100
1500 950 2000 1590.91 950 2100
1555 950 2000 1636.82 950 2100
1610 950 2000 1682.73 950 2100
1665 950 2000 1728.64 950 2100
1720 950 2000 1774.55 950 2100
1775 950 2000 1820.45 950 2100
1830 950 2000 1866.36 950 2100
1885 950 2000 1912.27 950 2100
1940 950 2000 1958.18 950 2100
1995 950 2000 2004.09 950 2100
0 1000 2000 0 1000 2100
45 1000 2000 54.0909 1000 2100
90 1000 2000 108.182 1000 2100
135 1000 2000 162.273 1000 2100
180 1000 2000 216.364 1000 2100
225 1000 2000 270.455 1000 2100
270 1000 2000 324.545 1000 2100
315 1000 2000 378.636 1000 2100
360 1000 2000 432.727 1000 2100
405 1000 2000 486.818 1000 2100
450 1000 2000 540.909 1000 2100
495 1000 2000 595 1000 2100
540 1000 2000 649.091 1000 2100
585 1000 2000 703.182 1000 2100
630 1000 2000 757.273 1000 2100
675 1000 2000 811.364 1000 2100
720 1000 2000 865.455 1000 2100
765 1000 2000 919.545 1000 2100
810 1000 2000 973.636 1000 2100
855 1000 2000 1027.73 1000 2100
900 1000 2000 1081.82 1000 2100
950 1000 2000 1131.82 1000 2100
1005 1000 2000 1177.73 1000 2100
1060 1000 2000 1223.64 1000 2100
1115 1000 2000 1269.55 1000 2100
1170 1000 2000 1315.45 1000 2100
1225 1000 2000 1361.36 1000 2100
1280 1000 2000 1407.27 1000 2100
1335 1000 2000 1453.18 1000 2100
1390 1000 2000 1499.09 1000 2100
1445 1000 2000 1545 1000 2100
1500 1000 2000 1590.91 1000 2100
1555 1000 2000 1636.82 1000 2100
1610 1000 2000 1682.73 1000 2100
1665 1000 2000 1728.64 1000 2100
1720 1000 2000 1774.55 1000 2100
1775 1000 2000 1820.45 1000 2100
1830 1000 2000 1866.36 1000 2100
1885 1000 2000 1912.27 1000 2100
1940 1000 2000 1958.18 1000 2100
1995 1000 2000 2004.09 1000 2100
0 1050 2000 0 1050 2100
45 1050 2000 54.0909 1050 2100
90 1050 2000 108.182 1050 2100
135 1050 2000 162.273 1050 2100
180 1050 2000 216.364 1050 2100
225 1050 2000 270.455 1050 2100
270 1050 2000 324.545 1050 2100
315 1050 2000 378.636 1050 2100
360 1050 2000 432.727 1050 2100
405 1050 2000 486.818 1050 2100
450 1050 2000 540.909 1050 2100
495 1050 2000 595 1050 2100
540 1050 2000 649.091 1050 2100
585 1050 2000 703.182 1050 2100
630 1050 2000 757.273 1050 2100
675 1050 2000 811.364 1050 2100
720 1050 2000 865.455 1050 2100
765 1050 2000 919.545 1050 2100
810 1050 2000 973.636 1050 2100
855 1050 2000 1027.73 1050 2100
900 1050 2000 1081.82 1050 2100
950 1050 2000 1131.82 1050 2100
1005 1050 2000 1177.73 1050 2100
1060 1050 2000 1223.64 1050 2100
1115 1050 2000 1269.55 1050 2100
1170 1050 2000 1315.45 1050 2100
1225 1050 2000 1361.36 1050 2100
1280 1050 2000 1407.27 1050 2100
1335 1050 2000 1453.18 1050 2100
1390 1050 2000 1499.09 1050 2100
1445 1050 2000 1545 1050 2100
1500 1050 2000 1590.91 1050 2100
1555 1050 2000 1636.82 1050 2100
1610 1050 2000 1682.73 1050 2100
1665 1050 2000 1728.64 1050 2100
1720 1050 2000 1774.55 1050 2100
1775 1050 2000 1820.45 1050 2100
1830 1050 2000 1866.36 1050 2100
1885 1050 2000 1912.27 1050 2100
1940 1050 2000 1958.18 1050 2100
1995 1050 2000 2004.09 1050 2100
0 1100 2000 0 1100 2100
45 1100 2000 54.0909 1100 2100
90 1100 2000 108.182 1100 2100
135 1100 2000 162.273 1100 2100
180 1100 2000 216.364 1100 2100
225 1100 2000 270.455 1100 2100
270 1100 2000 324.545 1100 2100
315 1100 2000 378.636 1100 2100
360 1100 2000 432.727 1100 2100
405 1100 2000 486.818 1100 2100
450 1100 2000 540.909 1100 2100
495 1100 2000 595 1100 2100
540 1100 2000 649.091 1100 2100
585 1100 2000 703.182 1100 2100
630 1100 2000 757.273 1100 2100
675 1100 2000 811.364 1100 2100
720 1100 2000 865.455 1100 2100
765 1100 2000 919.545 1100 2100
810 1100 2000 973.636 1100 2100
855 1100 2000 1027.73 1100 2100
900 1100 2000 1081.82 1100 2100
950 1100 2000 1131.82 1100 2100
1005 1100 2000 1177.73 1100 2100
1060 1100 2000 1223.64 1100 2100
1115 1100 2000 1269.55 1100 2100
1170 1100 2000 1315.45 1100 2100
1225 1100 2000 1361.36 1100 2100
1280 1100 2000 1407.27 1100 2100
1335 1100 2000 1453.18 1100 2100
1390 1100 2000 1499.09 1100 2100
1445 1100 2000 1545 1100 2100
1500 1100 2000 1590.91 1100 2100
1555 1100 2000 1636.82 1100 2100
1610 1100 2000 1682.73 1100 2100
1665 1100 2000 1728.64 1100 2100
1720 1100 2000 1774.55 1100 2100
1775 1100 2000 1820.45 1100 2100
1830 1100 2000 1866.36 1100 2100
1885 1100 2000 1912.27 1100 2100
1940 1100 2000 1958.18 1100 2100
1995 1100 2000 2004.09 1100 2100
0 1150 2000 0 1150 2100
45 1150 2000 54.0909 1150 2100
90 1150 2000 108.182 1150 2100
135 1150 2000 162.273 1150 2100
180 1150 2000 216.364 1150 2100
225 1150 2000 270.455 1150 2100
270 1150 2000 324.545 1150 2100
315 1150 2000 378.636 1150 2100
360 1150 2000 432.727 1150 2100
405 1150 2000 486.818 1150 2100
450 1150 2000 540.909 1150 2100
495 1150 2000 595 1150 2100
540 1150 2000 649.091 1150 2100
585 1150 2000 703.182 1150 2100
630 1150 2000 757.273 1150 2100
675 1150 2000 811.364 1150 2100
720 1150 2000 865.455 1150 2100
765 1150 2000 919.545 1150 2100
810 1150 2000 973.636 1150 2100
855 1150 2000 1027.73 1150 2100
900 1150 2000 1081.82 1150 2100
950 1150 2000 1131.82 1150 2100
1005 1150 2000 1177.73 1150 2100
1060 1150 2000 1223.64 1150 2100
1115 1150 2000 1269.55 1150 2100
1170 1150 2000 1315.45 1150 2100
1225 1150 2000 1361.36 1150 2100
1280 1150 2000 1407.27 1150 2100
1335 1150 2000 1453.18 1150 2100
1390 1150 2000 1499.09 1150 2100
1445 1150 2000 1545 1150 2100
1500 1150 2000 1590.91 1150 2100
1555 1150 2000 1636.82 1150 2100
1610 1150 2000 1682.73 1150 2100
1665 1150 2000 1728.64 1150 2100
1720 1150 2000 1774.55 1150 2100
1775 1150 2000 1820.45 1150 2100
1830 1150 2000 1866.36 1150 2100
1885 1150 2000 1912.27 1150 2100
1940 1150 2000 1958.18 1150 2100
1995 1150 2000 2004.09 1150 2100
0 1200 2000 0 1200 2100
45 1200 2000 54.0909 1200 2100
90 1200 2000 108.182 1200 2100
135 1200 2000 162.273 1200 2100
180 1200 2000 216.364 1200 2100
225 1200 2000 270.455 1200 2100
270 1200 2000 324.545 1200 2100
315 1200 2000 378.636 1200 2100
360 1200 2000 432.727 1200 2100
405 1200 2000 486.818 1200 2100