SPECGRID
10 10 10 1 F
/

COORD
0 0 0 0 0 2.72727
9.09091 0 0 9.09091 0 2.72727
18.1818 0 0 18.1818 0 2.72727
27.2727 0 0 27.2727 0 2.72727
36.3636 0 0 36.3636 0 2.72727
45.4545 0 0 45.4545 0 2.72727
54.5455 0 0 54.5455 0 2.72727
63.6364 0 0 63.6364 0 2.72727
72.7273 0 0 72.7273 0 2.72727
81.8182 0 0 81.8182 0 2.72727
90.9091 0 0 90.9091 0 2.72727
0 3.63636 0 0 3.63636 2.72727
9.09091 3.63636 0 9.09091 3.63636 2.72727
18.1818 3.63636 0 18.1818 3.63636 2.72727
27.2727 3.63636 0 27.2727 3.63636 2.72727
36.3636 3.63636 0 36.3636 3.63636 2.72727
45.4545 3.63636 0 45.4545 3.63636 2.72727
54.5455 3.63636 0 54.5455 3.63636 2.72727
63.6364 3.63636 0 63.6364 3.63636 2.72727
72.7273 3.63636 0 72.7273 3.63636 2.72727
81.8182 3.63636 0 81.8182 3.63636 2.72727
90.9091 3.63636 0 90.9091 3.63636 2.72727
0 7.27273 0 0 7.27273 2.72727
9.09091 7.27273 0 9.09091 7.27273 2.72727
18.1818 7.27273 0 18.1818 7.27273 2.72727
27.2727 7.27273 0 27.2727 7.27273 2.72727
36.3636 7.27273 0 36.3636 7.27273 2.72727
45.4545 7.27273 0 45.4545 7.27273 2.72727
54.5455 7.27273 0 54.5455 7.27273 2.72727
63.6364 7.27273 0 63.6364 7.27273 2.72727
72.7273 7.27273 0 72.7273 7.27273 2.72727
81.8182 7.27273 0 81.8182 7.27273 2.72727
90.9091 7.27273 0 90.9091 7.27273 2.72727
0 10.9091 0 0 10.9091 2.72727
9.09091 10.9091 0 9.09091 10.9091 2.72727
18.1818 10.9091 0 18.1818 10.9091 2.72727
27.2727 10.9091 0 27.2727 10.9091 2.72727
36.3636 10.9091 0 36.3636 10.9091 2.72727
45.4545 10.9091 0 45.4545 10.9091 2.72727
54.5455 10.9091 0 54.5455 10.9091 2.72727
63.6364 10.9091 0 63.6364 10.9091 2.72727
72.7273 10.9091 0 72.7273 10.9091 2.72727
81.8182 10.9091 0 81.8182 10.9091 2.72727
90.9091 10.9091 0 90.9091 10.9091 2.72727
0 14.5455 0 0 14.5455 2.72727
9.09091 14.5455 0 9.09091 14.5455 2.72727
18.1818 14.5455 0 18.1818 14.5455 2.72727
27.2727 14.5455 0 27.2727 14.5455 2.72727
36.3636 14.5455 0 36.3636 14.5455 2.72727
45.4545 14.5455 0 45.4545 14.5455 2.72727
54.5455 14.5455 0 54.5455 14.5455 2.72727
63.6364 14.5455 0 63.6364 14.5455 2.72727
72.7273 14.5455 0 72.7273 14.5455 2.72727
81.8182 14.5455 0 81.8182 14.5455 2.72727
90.9091 14.5455 0 90.9091 14.5455 2.72727
0 18.1818 0 0 18.1818 2.72727
9.09091 18.1818 0 9.09091 18.1818 2.72727
18.1818 18.1818 0 18.1818 18.1818 2.72727
27.2727 18.1818 0 27.2727 18.1818 2.72727
36.3636 18.1818 0 36.3636 18.1818 2.72727
45.4545 18.1818 0 45.4545 18.1818 2.72727
54.5455 18.1818 0 54.5455 18.1818 2.72727
63.6364 18.1818 0 63.6364 18.1818 2.72727
72.7273 18.1818 0 72.7273 18.1818 2.72727
81.8182 18.1818 0 81.8182 18.1818 2.72727
90.9091 18.1818 0 90.9091 18.1818 2.72727
0 21.8182 0 0 21.8182 2.72727
9.09091 21.8182 0 9.09091 21.8182 2.72727
18.1818 21.8182 0 18.1818 21.8182 2.72727
27.2727 21.8182 0 27.2727 21.8182 2.72727
36.3636 21.8182 0 36.3636 21.8182 2.72727
45.4545 21.8182 0 45.4545 21.8182 2.72727
54.5455 21.8182 0 54.5455 21.8182 2.72727
63.6364 21.8182 0 63.6364 21.8182 2.72727
72.7273 21.8182 0 72.7273 21.8182 2.72727
81.8182 21.8182 0 81.8182 21.8182 2.72727
90.9091 21.8182 0 90.9091 21.8182 2.72727
0 25.4545 0 0 25.4545 2.72727
9.09091 25.4545 0 9.09091 25.4545 2.72727
18.1818 25.4545 0 18.1818 25.4545 2.72727
27.2727 25.4545 0 27.2727 25.4545 2.72727
36.3636 25.4545 0 36.3636 25.4545 2.72727
45.4545 25.4545 0 45.4545 25.4545 2.72727
54.5455 25.4545 0 54.5455 25.4545 2.72727
63.6364 25.4545 0 63.6364 25.4545 2.72727
72.7273 25.4545 0 72.7273 25.4545 2.72727
81.8182 25.4545 0 81.8182 25.4545 2.72727
90.9091 25.4545 0 90.9091 25.4545 2.72727
0 29.0909 0 0 29.0909 2.72727
9.09091 29.0909 0 9.09091 29.0909 2.72727
18.1818 29.0909 0 18.1818 29.0909 2.72727
27.2727 29.0909 0 27.2727 29.0909 2.72727
36.3636 29.0909 0 36.3636 29.0909 2.72727
45.4545 29.0909 0 45.4545 29.0909 2.72727
54.5455 29.0909 0 54.5455 29.0909 2.72727
63.6364 29.0909 0 63.6364 29.0909 2.72727
72.7273 29.0909 0 72.7273 29.0909 2.72727
81.8182 29.0909 0 81.8182 29.0909 2.72727
90.9091 29.0909 0 90.9091 29.0909 2.72727
0 32.7273 0 0 32.7273 2.72727
9.09091 32.7273 0 9.09091 32.7273 2.72727
18.1818 32.7273 0 18.1818 32.7273 2.72727
27.2727 32.7273 0 27.2727 32.7273 2.72727
36.3636 32.7273 0 36.3636 32.7273 2.72727
45.4545 32.7273 0 45.4545 32.7273 2.72727
54.5455 32.7273 0 54.5455 32.7273 2.72727
63.6364 32.7273 0 63.6364 32.7273 2.72727
72.7273 32.7273 0 72.7273 32.7273 2.72727
81.8182 32.7273 0 81.8182 32.7273 2.72727
90.9091 32.7273 0 90.9091 32.7273 2.72727
0 36.3636 0 0 36.3636 2.72727
9.09091 36.3636 0 9.09091 36.3636 2.72727
18.1818 36.3636 0 18.1818 36.3636 2.72727
27.2727 36.3636 0 27.2727 36.3636 2.72727
36.3636 36.3636 0 36.3636 36.3636 2.72727
45.4545 36.3636 0 45.4545 36.3636 2.72727
54.5455 36.3636 0 54.5455 36.3636 2.72727
63.6364 36.3636 0 63.6364 36.3636 2.72727
72.7273 36.3636 0 72.7273 36.3636 2.72727
81.8182 36.3636 0 81.8182 36.3636 2.72727
90.9091 36.3636 0 90.9091 36.3636 2.72727
/

ZCORN
0 0 0 0 0 0 0 0
0 0 0 0 0 0 0 0
0 0 0 0 0 0 0 0
0 0 0 0 0 0 0 0
0 0 0 0 0 0 0 0
0 0 0 0 0 0 0 0
0 0 0 0 0 0 0 0
0 0 0 0 0 0 0 0
0 0 0 0 0 0 0 0
0 0 0 0 0 0 0 0
0 0 0 0 0 0 0 0
0 0 0 0 0 0 0 0
0 0 0 0 0 0 0 0
0 0 0 0 0 0 0 0
0 0 0 0 0 0 0 0
0 0 0 0 0 0 0 0
0 0 0 0 0 0 0 0
0 0 0 0 0 0 0 0
0 0 0 0 0 0 0 0
0 0 0 0 0 0 0 0
0 0 0 0 0 0 0 0
0 0 0 0 0 0 0 0
0 0 0 0 0 0 0 0
0 0 0 0 0 0 0 0
0 0 0 0 0 0 0 0
0 0 0 0 0 0 0 0
0 0 0 0 0 0 0 0
0 0 0 0 0 0 0 0
0 0 0 0 0 0 0 0
0 0 0 0 0 0 0 0
0 0 0 0 0 0 0 0
0 0 0 0 0 0 0 0
0 0 0 0 0 0 0 0
0 0 0 0 0 0 0 0
0 0 0 0 0 0 0 0
0 0 0 0 0 0 0 0
0 0 0 0 0 0 0 0
0 0 0 0 0 0 0 0
0 0 0 0 0 0 0 0
0 0 0 0 0 0 0 0
0 0 0 0 0 0 0 0
0 0 0 0 0 0 0 0
0 0 0 0 0 0 0 0
0 0 0 0 0 0 0 0
0 0 0 0 0 0 0 0
0 0 0 0 0 0 0 0
0 0 0 0 0 0 0 0
0 0 0 0 0 0 0 0
0 0 0 0 0 0 0 0
0 0 0 0 0 0 0 0
0.272727 0.272727 0.272727 0.272727 0.272727 0.272727 0.272727 0.272727
0.272727 0.272727 0.272727 0.272727 0.272727 0.272727 0.272727 0.272727
0.272727 0.272727 0.272727 0.272727 0.272727 0.272727 0.272727 0.272727
0.272727 0.272727 0.272727 0.272727 0.272727 0.272727 0.272727 0.272727
0.272727 0.272727 0.272727 0.272727 0.272727 0.272727 0.272727 0.272727
0.272727 0.272727 0.272727 0.272727 0.272727 0.272727 0.272727 0.272727
0.272727 0.272727 0.272727 0.272727 0.272727 0.272727 0.272727 0.272727
0.272727 0.272727 0.272727 0.272727 0.272727 0.272727 0.272727 0.272727
0.272727 0.272727 0.272727 0.272727 0.272727 0.272727 0.272727 0.272727
0.272727 0.272727 0.272727 0.272727 0.272727 0.272727 0.272727 0.272727
0.272727 0.272727 0.272727 0.272727 0.272727 0.272727 0.272727 0.272727
0.272727 0.272727 0.272727 0.272727 0.272727 0.272727 0.272727 0.272727
0.272727 0.272727 0.272727 0.272727 0.272727 0.272727 0.272727 0.272727
0.272727 0.272727 0.272727 0.272727 0.272727 0.272727 0.272727 0.272727
0.272727 0.272727 0.272727 0.272727 0.272727 0.272727 0.272727 0.272727
0.272727 0.272727 0.272727 0.272727 0.272727 0.272727 0.272727 0.272727
0.272727 0.272727 0.272727 0.272727 0.272727 0.272727 0.272727 0.272727
0.272727 0.272727 0.272727 0.272727 0.272727 0.272727 0.272727 0.272727
0.272727 0.272727 0.272727 0.272727 0.272727 0.272727 0.272727 0.272727
0.272727 0.272727 0.272727 0.272727 0.272727 0.272727 0.272727 0.272727
0.272727 0.272727 0.272727 0.272727 0.272727 0.272727 0.272727 0.272727
0.272727 0.272727 0.272727 0.272727 0.272727 0.272727 0.272727 0.272727
0.272727 0.272727 0.272727 0.272727 0.272727 0.272727 0.272727 0.272727
0.272727 0.272727 0.272727 0.272727 0.272727 0.272727 0.272727 0.272727
0.272727 0.272727 0.272727 0.272727 0.272727 0.272727 0.272727 0.272727
0.272727 0.272727 0.272727 0.272727 0.272727 0.272727 0.272727 0.272727
0.272727 0.272727 0.272727 0.272727 0.272727 0.272727 0.272727 0.272727
0.272727 0.272727 0.272727 0.272727 0.272727 0.272727 0.272727 0.272727
0.272727 0.272727 0.272727 0.272727 0.272727 0.272727 0.272727 0.272727
0.272727 0.272727 0.272727 0.272727 0.272727 0.272727 0.272727 0.272727
0.272727 0.272727 0.272727 0.272727 0.272727 0.272727 0.272727 0.272727
0.272727 0.272727 0.272727 0.272727 0.272727 0.272727 0.272727 0.272727
0.272727 0.272727 0.272727 0.272727 0.272727 0.272727 0.272727 0.272727
0.272727 0.272727 0.272727 0.272727 0.272727 0.272727 0.272727 0.272727
0.272727 0.272727 0.272727 0.272727 0.272727 0.272727 0.272727 0.272727
0.272727 0.272727 0.272727 0.272727 0.272727 0.272727 0.272727 0.272727
0.272727 0.272727 0.272727 0.272727 0.272727 0.272727 0.272727 0.272727
0.272727 0.272727 0.272727 0.272727 0.272727 0.272727 0.272727 0.272727
0.272727 0.272727 0.272727 0.272727 0.272727 0.272727 0.272727 0.272727
0.272727 0.272727 0.272727 0.272727 0.272727 0.272727 0.272727 0.272727
0.272727 0.272727 0.272727 0.272727 0.272727 0.272727 0.272727 0.272727
0.272727 0.272727 0.272727 0.272727 0.272727 0.272727 0.272727 0.272727
0.272727 0.272727 0.272727 0.272727 0.272727 0.272727 0.272727 0.272727
0.272727 0.272727 0.272727 0.272727 0.272727 0.272727 0.272727 0.272727
0.272727 0.272727 0.272727 0.272727 0.272727 0.272727 0.272727 0.272727
0.272727 0.272727 0.272727 0.272727 0.272727 0.272727 0.272727 0.272727
0.272727 0.272727 0.272727 0.272727 0.272727 0.272727 0.272727 0.272727
0.272727 0.272727 0.272727 0.272727 0.272727 0.272727 0.272727 0.272727
0.272727 0.272727 0.272727 0.272727 0.272727 0.272727 0.272727 0.272727
0.272727 0.272727 0.272727 0.272727 0.272727 0.272727 0.272727 0.272727
0.272727 0.272727 0.272727 0.272727 0.272727 0.272727 0.272727 0.272727
0.272727 0.272727 0.272727 0.272727 0.272727 0.272727 0.272727 0.272727
0.272727 0.272727 0.272727 0.272727 0.272727 0.272727 0.272727 0.272727
0.272727 0.272727 0.272727 0.272727 0.272727 0.272727 0.272727 0.272727
0.272727 0.272727 0.272727 0.272727 0.272727 0.272727 0.272727 0.272727
0.272727 0.272727 0.272727 0.272727 0.272727 0.272727 0.272727 0.272727
0.272727 0.272727 0.272727 0.272727 0.272727 0.272727 0.272727 0.272727
0.272727 0.272727 0.272727 0.272727 0.272727 0.272727 0.272727 0.272727
0.272727 0.272727 0.272727 0.272727 0.272727 0.272727 0.272727 0.272727
0.272727 0.272727 0.272727 0.272727 0.272727 0.272727 0.272727 0.272727
0.272727 0.272727 0.272727 0.272727 0.272727 0.272727 0.272727 0.272727
0.272727 0.272727 0.272727 0.272727 0.272727 0.272727 0.272727 0.272727
0.272727 0.272727 0.272727 0.272727 0.272727 0.272727 0.272727 0.272727
0.272727 0.272727 0.272727 0.272727 0.272727 0.272727 0.272727 0.272727
0.272727 0.272727 0.272727 0.272727 0.272727 0.272727 0.272727 0.272727
0.272727 0.272727 0.272727 0.272727 0.272727 0.272727 0.272727 0.272727
0.272727 0.272727 0.272727 0.272727 0.272727 0.272727 0.272727 0.272727
0.272727 0.272727 0.272727 0.272727 0.272727 0.272727 0.272727 0.272727
0.272727 0.272727 0.272727 0.272727 0.272727 0.272727 0.272727 0.272727
0.272727 0.272727 0.272727 0.272727 0.272727 0.272727 0.272727 0.272727
0.272727 0.272727 0.272727 0.272727 0.272727 0.272727 0.272727 0.272727
0.272727 0.272727 0.272727 0.272727 0.272727 0.272727 0.272727 0.272727
0.272727 0.272727 0.272727 0.272727 0.272727 0.272727 0.272727 0.272727
0.272727 0.272727 0.272727 0.272727 0.272727 0.272727 0.272727 0.272727
0.272727 0.272727 0.272727 0.272727 0.272727 0.272727 0.272727 0.272727
0.272727 0.272727 0.272727 0.272727 0.272727 0.272727 0.272727 0.272727
0.272727 0.272727 0.272727 0.272727 0.272727 0.272727 0.272727 0.272727
0.272727 0.272727 0.272727 0.272727 0.272727 0.272727 0.272727 0.272727
0.272727 0.272727 0.272727 0.272727 0.272727 0.272727 0.272727 0.272727
0.272727 0.272727 0.272727 0.272727 0.272727 0.272727 0.272727 0.272727
0.272727 0.272727 0.272727 0.272727 0.272727 0.272727 0.272727 0.272727
0.272727 0.272727 0.272727 0.272727 0.272727 0.272727 0.272727 0.272727
0.272727 0.272727 0.272727 0.272727 0.272727 0.272727 0.272727 0.272727
0.272727 0.272727 0.272727 0.272727 0.272727 0.272727 0.272727 0.272727
0.272727 0.272727 0.272727 0.272727 0.272727 0.272727 0.272727 0.272727
0.272727 0.272727 0.272727 0.272727 0.272727 0.272727 0.272727 0.272727
0.272727 0.272727 0.272727 0.272727 0.272727 0.272727 0.272727 0.272727
0.272727 0.272727 0.272727 0.272727 0.272727 0.272727 0.272727 0.272727
0.272727 0.272727 0.272727 0.272727 0.272727 0.272727 0.272727 0.272727
0.272727 0.272727 0.272727 0.272727 0.272727 0.272727 0.272727 0.272727
0.272727 0.272727 0.272727 0.272727 0.272727 0.272727 0.272727 0.272727
0.272727 0.272727 0.272727 0.272727 0.272727 0.272727 0.272727 0.272727
0.272727 0.272727 0.272727 0.272727 0.272727 0.272727 0.272727 0.272727
0.272727 0.272727 0.272727 0.272727 0.272727 0.272727 0.272727 0.272727
0.272727 0.272727 0.272727 0.272727 0.272727 0.272727 0.272727 0.272727
0.272727 0.272727 0.272727 0.272727 0.272727 0.272727 0.272727 0.272727
0.272727 0.272727 0.272727 0.272727 0.272727 0.272727 0.272727 0.272727
0.272727 0.272727 0.272727 0.272727 0.272727 0.272727 0.272727 0.272727
0.272727 0.272727 0.272727 0.272727 0.272727 0.272727 0.272727 0.272727
0.272727 0.272727 0.272727 0.272727 0.272727 0.272727 0.272727 0.272727
0.545455 0.545455 0.545455 0.545455 0.545455 0.545455 0.545455 0.545455
0.545455 0.545455 0.545455 0.545455 0.545455 0.545455 0.545455 0.545455
0.545455 0.545455 0.545455 0.545455 0.545455 0.545455 0.545455 0.545455
0.545455 0.545455 0.545455 0.545455 0.545455 0.545455 0.545455 0.545455
0.545455 0.545455 0.545455 0.545455 0.545455 0.545455 0.545455 0.545455
0.545455 0.545455 0.545455 0.545455 0.545455 0.545455 0.545455 0.545455
0.545455 0.545455 0.545455 0.545455 0.545455 0.545455 0.545455 0.545455
0.545455 0.545455 0.545455 0.545455 0.545455 0.545455 0.545455 0.545455
0.545455 0.545455 0.545455 0.545455 0.545455 0.545455 0.545455 0.545455
0.545455 0.545455 0.545455 0.545455 0.545455 0.545455 0.545455 0.545455
0.545455 0.545455 0.545455 0.545455 0.545455 0.545455 0.545455 0.545455
0.545455 0.545455 0.545455 0.545455 0.545455 0.545455 0.545455 0.545455
0.545455 0.545455 0.545455 0.545455 0.545455 0.545455 0.545455 0.545455
0.545455 0.545455 0.545455 0.545455 0.545455 0.545455 0.545455 0.545455
0.545455 0.545455 0.545455 0.545455 0.545455 0.545455 0.545455 0.545455
0.545455 0.545455 0.545455 0.545455 0.545455 0.545455 0.545455 0.545455
0.545455 0.545455 0.545455 0.545455 0.545455 0.545455 0.545455 0.545455
0.545455 0.545455 0.545455 0.545455 0.545455 0.545455 0.545455 0.545455
0.545455 0.545455 0.545455 0.545455 0.545455 0.545455 0.545455 0.545455
0.545455 0.545455 0.545455 0.545455 0.545455 0.545455 0.545455 0.545455
0.545455 0.545455 0.545455 0.545455 0.545455 0.545455 0.545455 0.545455
0.545455 0.545455 0.545455 0.545455 0.545455 0.545455 0.545455 0.545455
0.545455 0.545455 0.545455 0.545455 0.545455 0.545455 0.545455 0.545455
0.545455 0.545455 0.545455 0.545455 0.545455 0.545455 0.545455 0.545455
0.545455 0.545455 0.545455 0.545455 0.545455 0.545455 0.545455 0.545455
0.545455 0.545455 0.545455 0.545455 0.545455 0.545455 0.545455 0.545455
0.545455 0.545455 0.545455 0.545455 0.545455 0.545455 0.545455 0.545455
0.545455 0.545455 0.545455 0.545455 0.545455 0.545455 0.545455 0.545455
0.545455 0.545455 0.545455 0.545455 0.545455 0.545455 0.545455 0.545455
0.545455 0.545455 0.545455 0.545455 0.545455 0.545455 0.545455 0.545455
0.545455 0.545455 0.545455 0.545455 0.545455 0.545455 0.545455 0.545455
0.545455 0.545455 0.545455 0.545455 0.545455 0.545455 0.545455 0.545455
0.545455 0.545455 0.545455 0.545455 0.545455 0.545455 0.545455 0.545455
0.545455 0.545455 0.545455 0.545455 0.545455 0.545455 0.545455 0.545455
0.545455 0.545455 0.545455 0.545455 0.545455 0.545455 0.545455 0.545455
0.545455 0.545455 0.545455 0.545455 0.545455 0.545455 0.545455 0.545455
0.545455 0.545455 0.545455 0.545455 0.545455 0.545455 0.545455 0.545455
0.545455 0.545455 0.545455 0.545455 0.545455 0.545455 0.545455 0.545455
0.545455 0.545455 0.545455 0.545455 0.545455 0.545455 0.545455 0.545455
0.545455 0.545455 0.545455 0.545455 0.545455 0.545455 0.545455 0.545455
0.545455 0.545455 0.545455 0.545455 0.545455 0.545455 0.545455 0.545455
0.545455 0.545455 0.545455 0.545455 0.545455 0.545455 0.545455 0.545455
0.545455 0.545455 0.545455 0.545455 0.545455 0.545455 0.545455 0.545455
0.545455 0.545455 0.545455 0.545455 0.545455 0.545455 0.545455 0.545455
0.545455 0.545455 0.545455 0.545455 0.545455 0.545455 0.545455 0.545455
0.545455 0.545455 0.545455 0.545455 0.545455 0.545455 0.545455 0.545455
0.545455 0.545455 0.545455 0.545455 0.545455 0.545455 0.545455 0.545455
0.545455 0.545455 0.545455 0.545455 0.545455 0.545455 0.545455 0.545455
0.545455 0.545455 0.545455 0.545455 0.545455 0.545455 0.545455 0.545455
0.545455 0.545455 0.545455 0.545455 0.545455 0.545455 0.545455 0.545455
0.545455 0.545455 0.545455 0.545455 0.545455 0.545455 0.545455 0.545455
0.545455 0.545455 0.545455 0.545455 0.545455 0.545455 0.545455 0.545455
0.545455 0.545455 0.545455 0.545455 0.545455 0.545455 0.545455 0.545455
0.545455 0.545455 0.545455 0.545455 0.545455 0.545455 0.545455 0.545455
0.545455 0.545455 0.545455 0.545455 0.545455 0.545455 0.545455 0.545455
0.545455 0.545455 0.545455 0.545455 0.545455 0.545455 0.545455 0.545455
0.545455 0.545455 0.545455 0.545455 0.545455 0.545455 0.545455 0.545455
0.545455 0.545455 0.545455 0.545455 0.545455 0.545455 0.545455 0.545455
0.545455 0.545455 0.545455 0.545455 0.545455 0.545455 0.545455 0.545455
0.545455 0.545455 0.545455 0.545455 0.545455 0.545455 0.545455 0.545455
0.545455 0.545455 0.545455 0.545455 0.545455 0.545455 0.545455 0.545455
0.545455 0.545455 0.545455 0.545455 0.545455 0.545455 0.545455 0.545455
0.545455 0.545455 0.545455 0.545455 0.545455 0.545455 0.545455 0.545455
0.545455 0.545455 0.545455 0.545455 0.545455 0.545455 0.545455 0.545455
0.545455 0.545455 0.545455 0.545455 0.545455 0.545455 0.545455 0.545455
0.545455 0.545455 0.545455 0.545455 0.545455 0.545455 0.545455 0.545455
0.545455 0.545455 0.545455 0.545455 0.545455 0.545455 0.545455 0.545455
0.545455 0.545455 0.545455 0.545455 0.545455 0.545455 0.545455 0.545455
0.545455 0.545455 0.545455 0.545455 0.545455 0.545455 0.545455 0.545455
0.545455 0.545455 0.545455 0.545455 0.545455 0.545455 0.545455 0.545455
0.545455 0.545455 0.545455 0.545455 0.545455 0.545455 0.545455 0.545455
0.545455 0.545455 0.545455 0.545455 0.545455 0.545455 0.545455 0.545455
0.545455 0.545455 0.545455 0.545455 0.545455 0.545455 0.545455 0.545455
0.545455 0.545455 0.545455 0.545455 0.545455 0.545455 0.545455 0.545455
0.545455 0.545455 0.545455 0.545455 0.545455 0.545455 0.545455 0.545455
0.545455 0.545455 0.545455 0.545455 0.545455 0.545455 0.545455 0.545455
0.545455 0.545455 0.545455 0.545455 0.545455 0.545455 0.545455 0.545455
0.545455 0.545455 0.545455 0.545455 0.545455 0.545455 0.545455 0.545455
0.545455 0.545455 0.545455 0.545455 0.545455 0.545455 0.545455 0.545455
0.545455 0.545455 0.545455 0.545455 0.545455 0.545455 0.545455 0.545455
0.545455 0.545455 0.545455 0.545455 0.545455 0.545455 0.545455 0.545455
0.545455 0.545455 0.545455 0.545455 0.545455 0.545455 0.545455 0.545455
0.545455 0.545455 0.545455 0.545455 0.545455 0.545455 0.545455 0.545455
0.545455 0.545455 0.545455 0.545455 0.545455 0.545455 0.545455 0.545455
0.545455 0.545455 0.545455 0.545455 0.545455 0.545455 0.545455 0.545455
0.545455 0.545455 0.545455 0.545455 0.545455 0.545455 0.545455 0.545455
0.545455 0.545455 0.545455 0.545455 0.545455 0.545455 0.545455 0.545455
0.545455 0.545455 0.545455 0.545455 0.545455 0.545455 0.545455 0.545455
0.545455 0.545455 0.545455 0.545455 0.545455 0.545455 0.545455 0.545455
0.545455 0.545455 0.545455 0.545455 0.545455 0.545455 0.545455 0.545455
0.545455 0.545455 0.545455 0.545455 0.545455 0.545455 0.545455 0.545455
0.545455 0.545455 0.545455 0.545455 0.545455 0.545455 0.545455 0.545455
0.545455 0.545455 0.545455 0.545455 0.545455 0.545455 0.545455 0.545455
0.545455 0.545455 0.545455 0.545455 0.545455 0.545455 0.545455 0.545455
0.545455 0.545455 0.545455 0.545455 0.545455 0.545455 0.545455 0.545455
0.545455 0.545455 0.545455 0.545455 0.545455 0.545455 0.545455 0.545455
0.545455 0.545455 0.545455 0.545455 0.545455 0.545455 0.545455 0.545455
0.545455 0.545455 0.545455 0.545455 0.545455 0.545455 0.545455 0.545455
0.545455 0.545455 0.545455 0.545455 0.545455 0.545455 0.545455 0.545455
0.545455 0.545455 0.545455 0.545455 0.545455 0.545455 0.545455 0.545455
0.818182 0.818182 0.818182 0.818182 0.818182 0.818182 0.818182 0.818182
0.818182 0.818182 0.818182 0.818182 0.818182 0.818182 0.818182 0.818182
0.818182 0.818182 0.818182 0.818182 0.818182 0.818182 0.818182 0.818182
0.818182 0.818182 0.818182 0.818182 0.818182 0.818182 0.818182 0.818182
0.818182 0.818182 0.818182 0.818182 0.818182 0.818182 0.818182 0.818182
0.818182 0.818182 0.818182 0.818182 0.818182 0.818182 0.818182 0.818182
0.818182 0.818182 0.818182 0.818182 0.818182 0.818182 0.818182 0.818182
0.818182 0.818182 0.818182 0.818182 0.818182 0.818182 0.818182 0.818182
0.818182 0.818182 0.818182 0.818182 0.818182 0.818182 0.818182 0.818182
0.818182 0.818182 0.818182 0.818182 0.818182 0.818182 0.818182 0.818182
0.818182 0.818182 0.818182 0.818182 0.818182 0.818182 0.818182 0.818182
0.818182 0.818182 0.818182 0.818182 0.818182 0.818182 0.818182 0.818182
0.818182 0.818182 0.818182 0.818182 0.818182 0.818182 0.818182 0.818182
0.818182 0.818182 0.818182 0.818182 0.818182 0.818182 0.818182 0.818182
0.818182 0.818182 0.818182 0.818182 0.818182 0.818182 0.818182 0.818182
0.818182 0.818182 0.818182 0.818182 0.818182 0.818182 0.818182 0.818182
0.818182 0.818182 0.818182 0.818182 0.818182 0.818182 0.818182 0.818182
0.818182 0.818182 0.818182 0.818182 0.818182 0.818182 0.818182 0.818182
0.818182 0.818182 0.818182 0.818182 0.818182 0.818182 0.818182 0.818182
0.818182 0.818182 0.818182 0.818182 0.818182 0.818182 0.818182 0.818182
0.818182 0.818182 0.818182 0.818182 0.818182 0.818182 0.818182 0.818182
0.818182 0.818182 0.818182 0.818182 0.818182 0.818182 0.818182 0.818182
0.818182 0.818182 0.818182 0.818182 0.818182 0.818182 0.818182 0.818182
0.818182 0.818182 0.818182 0.818182 0.818182 0.818182 0.818182 0.818182
0.818182 0.818182 0.818182 0.818182 0.818182 0.818182 0.818182 0.818182
0.818182 0.818182 0.818182 0.818182 0.818182 0.818182 0.818182 0.818182
0.818182 0.818182 0.818182 0.818182 0.818182 0.818182 0.818182 0.818182
0.818182 0.818182 0.818182 0.818182 0.818182 0.818182 0.818182 0.818182
0.818182 0.818182 0.818182 0.818182 0.818182 0.818182 0.818182 0.818182
0.818182 0.818182 0.818182 0.818182 0.818182 0.818182 0.818182 0.818182
0.818182 0.818182 0.818182 0.818182 0.818182 0.818182 0.818182 0.818182
0.818182 0.818182 0.818182 0.818182 0.818182 0.818182 0.818182 0.818182
0.818182 0.818182 0.818182 0.818182 0.818182 0.818182 0.818182 0.818182
0.818182 0.818182 0.818182 0.818182 0.818182 0.818182 0.818182 0.818182
0.818182 0.818182 0.818182 0.818182 0.818182 0.818182 0.818182 0.818182
0.818182 0.818182 0.818182 0.818182 0.818182 0.818182 0.818182 0.818182
0.818182 0.818182 0.818182 0.818182 0.818182 0.818182 0.818182 0.818182
0.818182 0.818182 0.818182 0.818182 0.818182 0.818182 0.818182 0.818182
0.818182 0.818182 0.818182 0.818182 0.818182 0.818182 0.818182 0.818182
0.818182 0.818182 0.818182 0.818182 0.818182 0.818182 0.818182 0.818182
0.818182 0.818182 0.818182 0.818182 0.818182 0.818182 0.818182 0.818182
0.818182 0.818182 0.818182 0.818182 0.818182 0.818182 0.818182 0.818182
0.818182 0.818182 0.818182 0.818182 0.818182 0.818182 0.818182 0.818182
0.818182 0.818182 0.818182 0.818182 0.818182 0.818182 0.818182 0.818182
0.818182 0.818182 0.818182 0.818182 0.818182 0.818182 0.818182 0.818182
0.818182 0.818182 0.818182 0.818182 0.818182 0.818182 0.818182 0.818182
0.818182 0.818182 0.818182 0.818182 0.818182 0.818182 0.818182 0.818182
0.818182 0.818182 0.818182 0.818182 0.818182 0.818182 0.818182 0.818182
0.818182 0.818182 0.818182 0.818182 0.818182 0.818182 0.818182 0.818182
0.818182 0.818182 0.818182 0.818182 0.818182 0.818182 0.818182 0.818182
0.818182 0.818182 0.818182 0.818182 0.818182 0.818182 0.818182 0.818182
0.818182 0.818182 0.818182 0.818182 0.818182 0.818182 0.818182 0.818182
0.818182 0.818182 0.818182 0.818182 0.818182 0.818182 0.818182 0.818182
0.818182 0.818182 0.818182 0.818182 0.818182 0.818182 0.818182 0.818182
0.818182 0.818182 0.818182 0.818182 0.818182 0.818182 0.818182 0.818182
0.818182 0.818182 0.818182 0.818182 0.818182 0.818182 0.818182 0.818182
0.818182 0.818182 0.818182 0.818182 0.818182 0.818182 0.818182 0.818182
0.818182 0.818182 0.818182 0.818182 0.818182 0.818182 0.818182 0.818182
0.818182 0.818182 0.818182 0.818182 0.818182 0.818182 0.818182 0.818182
0.818182 0.818182 0.818182 0.818182 0.818182 0.818182 0.818182 0.818182
0.818182 0.818182 0.818182 0.818182 0.818182 0.818182 0.818182 0.818182
0.818182 0.818182 0.818182 0.818182 0.818182 0.818182 0.818182 0.818182
0.818182 0.818182 0.818182 0.818182 0.818182 0.818182 0.818182 0.818182
0.818182 0.818182 0.818182 0.818182 0.818182 0.818182 0.818182 0.818182
0.818182 0.818182 0.818182 0.818182 0.818182 0.818182 0.818182 0.818182
0.818182 0.818182 0.818182 0.818182 0.818182 0.818182 0.818182 0.818182
0.818182 0.818182 0.818182 0.818182 0.818182 0.818182 0.818182 0.818182
0.818182 0.818182 0.818182 0.818182 0.818182 0.818182 0.818182 0.818182
0.818182 0.818182 0.818182 0.818182 0.818182 0.818182 0.818182 0.818182
0.818182 0.818182 0.818182 0.818182 0.818182 0.818182 0.818182 0.818182
0.818182 0.818182 0.818182 0.818182 0.818182 0.818182 0.818182 0.818182
0.818182 0.818182 0.818182 0.818182 0.818182 0.818182 0.818182 0.818182
0.818182 0.818182 0.818182 0.818182 0.818182 0.818182 0.818182 0.818182
0.818182 0.818182 0.818182 0.818182 0.818182 0.818182 0.818182 0.818182
0.818182 0.818182 0.818182 0.818182 0.818182 0.818182 0.818182 0.818182
0.818182 0.818182 0.818182 0.818182 0.818182 0.818182 0.818182 0.818182
0.818182 0.818182 0.818182 0.818182 0.818182 0.818182 0.818182 0.818182
0.818182 0.818182 0.818182 0.818182 0.818182 0.818182 0.818182 0.818182
0.818182 0.818182 0.818182 0.818182 0.818182 0.818182 0.818182 0.818182
0.818182 0.818182 0.818182 0.818182 0.818182 0.818182 0.818182 0.818182
0.818182 0.818182 0.818182 0.818182 0.818182 0.818182 0.818182 0.818182
0.818182 0.818182 0.818182 0.818182 0.818182 0.818182 0.818182 0.818182
0.818182 0.818182 0.818182 0.818182 0.818182 0.818182 0.818182 0.818182
0.818182 0.818182 0.818182 0.818182 0.818182 0.818182 0.818182 0.818182
0.818182 0.818182 0.818182 0.818182 0.818182 0.818182 0.818182 0.818182
0.818182 0.818182 0.818182 0.818182 0.818182 0.818182 0.818182 0.818182
0.818182 0.818182 0.818182 0.818182 0.818182 0.818182 0.818182 0.818182
0.818182 0.818182 0.818182 0.818182 0.818182 0.818182 0.818182 0.818182
0.818182 0.818182 0.818182 0.818182 0.818182 0.818182 0.818182 0.818182
0.818182 0.818182 0.818182 0.818182 0.818182 0.818182 0.818182 0.818182
0.818182 0.818182 0.818182 0.818182 0.818182 0.818182 0.818182 0.818182
0.818182 0.818182 0.818182 0.818182 0.818182 0.818182 0.818182 0.818182
0.818182 0.818182 0.818182 0.818182 0.818182 0.818182 0.818182 0.818182
0.818182 0.818182 0.818182 0.818182 0.818182 0.818182 0.818182 0.818182
0.818182 0.818182 0.818182 0.818182 0.818182 0.818182 0.818182 0.818182
0.818182 0.818182 0.818182 0.818182 0.818182 0.818182 0.818182 0.818182
0.818182 0.818182 0.818182 0.818182 0.818182 0.818182 0.818182 0.818182
0.818182 0.818182 0.818182 0.818182 0.818182 0.818182 0.818182 0.818182
0.818182 0.818182 0.818182 0.818182 0.818182 0.818182 0.818182 0.818182
0.818182 0.818182 0.818182 0.818182 0.818182 0.818182 0.818182 0.818182
1.09091 1.09091 1.09091 1.09091 1.09091 1.09091 1.09091 1.09091
1.09091 1.09091 1.09091 1.09091 1.09091 1.09091 1.09091 1.09091
1.09091 1.09091 1.09091 1.09091 1.09091 1.09091 1.09091 1.09091
1.09091 1.09091 1.09091 1.09091 1.09091 1.09091 1.09091 1.09091
1.09091 1.09091 1.09091 1.09091 1.09091 1.09091 1.09091 1.09091
1.09091 1.09091 1.09091 1.09091 1.09091 1.09091 1.09091 1.09091
1.09091 1.09091 1.09091 1.09091 1.09091 1.09091 1.09091 1.09091
1.09091 1.09091 1.09091 1.09091 1.09091 1.09091 1.09091 1.09091
1.09091 1.09091 1.09091 1.09091 1.09091 1.09091 1.09091 1.09091
1.09091 1.09091 1.09091 1.09091 1.09091 1.09091 1.09091 1.09091
1.09091 1.09091 1.09091 1.09091 1.09091 1.09091 1.09091 1.09091
1.09091 1.09091 1.09091 1.09091 1.09091 1.09091 1.09091 1.09091
1.09091 1.09091 1.09091 1.09091 1.09091 1.09091 1.09091 1.09091
1.09091 1.09091 1.09091 1.09091 1.09091 1.09091 1.09091 1.09091
1.09091 1.09091 1.09091 1.09091 1.09091 1.09091 1.09091 1.09091
1.09091 1.09091 1.09091 1.09091 1.09091 1.09091 1.09091 1.09091
1.09091 1.09091 1.09091 1.09091 1.09091 1.09091 1.09091 1.09091
1.09091 1.09091 1.09091 1.09091 1.09091 1.09091 1.09091 1.09091
1.09091 1.09091 1.09091 1.09091 1.09091 1.09091 1.09091 1.09091
1.09091 1.09091 1.09091 1.09091 1.09091 1.09091 1.09091 1.09091
1.09091 1.09091 1.09091 1.09091 1.09091 1.09091 1.09091 1.09091
1.09091 1.09091 1.09091 1.09091 1.09091 1.09091 1.09091 1.09091
1.09091 1.09091 1.09091 1.09091 1.09091 1.09091 1.09091 1.09091
1.09091 1.09091 1.09091 1.09091 1.09091 1.09091 1.09091 1.09091
1.09091 1.09091 1.09091 1.09091 1.09091 1.09091 1.09091 1.09091
1.09091 1.09091 1.09091 1.09091 1.09091 1.09091 1.09091 1.09091
1.09091 1.09091 1.09091 1.09091 1.09091 1.09091 1.09091 1.09091
1.09091 1.09091 1.09091 1.09091 1.09091 1.09091 1.09091 1.09091
1.09091 1.09091 1.09091 1.09091 1.09091 1.09091 1.09091 1.09091
1.09091 1.09091 1.09091 1.09091 1.09091 1.09091 1.09091 1.09091
1.09091 1.09091 1.09091 1.09091 1.09091 1.09091 1.09091 1.09091
1.09091 1.09091 1.09091 1.09091 1.09091 1.09091 1.09091 1.09091
1.09091 1.09091 1.09091 1.09091 1.09091 1.09091 1.09091 1.09091
1.09091 1.09091 1.09091 1.09091 1.09091 1.09091 1.09091 1.09091
1.09091 1.09091 1.09091 1.09091 1.09091 1.09091 1.09091 1.09091
1.09091 1.09091 1.09091 1.09091 1.09091 1.09091 1.09091 1.09091
1.09091 1.09091 1.09091 1.09091 1.09091 1.09091 1.09091 1.09091
1.09091 1.09091 1.09091 1.09091 1.09091 1.09091 1.09091 1.09091
1.09091 1.09091 1.09091 1.09091 1.09091 1.09091 1.09091 1.09091
1.09091 1.09091 1.09091 1.09091 1.09091 1.09091 1.09091 1.09091
1.09091 1.09091 1.09091 1.09091 1.09091 1.09091 1.09091 1.09091
1.09091 1.09091 1.09091 1.09091 1.09091 1.09091 1.09091 1.09091